This job is running on host node6.local with 8 core CPU
 Entering Gaussian System, Link 0=/share/apps/gaussian/g16/g16
 Initial command:
 /share/apps/gaussian/g16/l1.exe "/state/partition1/lam.nh/52227/Gau-13569.inp" -scrdir="/state/partition1/lam.nh/52227/"
 Entering Link 1 = /share/apps/gaussian/g16/l1.exe PID=     13570.
  
 Copyright (c) 1988-2019, Gaussian, Inc.  All Rights Reserved.
  
 This is part of the Gaussian(R) 16 program.  It is based on
 the Gaussian(R) 09 system (copyright 2009, Gaussian, Inc.),
 the Gaussian(R) 03 system (copyright 2003, Gaussian, Inc.),
 the Gaussian(R) 98 system (copyright 1998, Gaussian, Inc.),
 the Gaussian(R) 94 system (copyright 1995, Gaussian, Inc.),
 the Gaussian 92(TM) system (copyright 1992, Gaussian, Inc.),
 the Gaussian 90(TM) system (copyright 1990, Gaussian, Inc.),
 the Gaussian 88(TM) system (copyright 1988, Gaussian, Inc.),
 the Gaussian 86(TM) system (copyright 1986, Carnegie Mellon
 University), and the Gaussian 82(TM) system (copyright 1983,
 Carnegie Mellon University). Gaussian is a federally registered
 trademark of Gaussian, Inc.
  
 This software contains proprietary and confidential information,
 including trade secrets, belonging to Gaussian, Inc.
  
 This software is provided under written license and may be
 used, copied, transmitted, or stored only in accord with that
 written license.
  
 The following legend is applicable only to US Government
 contracts under FAR:
  
                    RESTRICTED RIGHTS LEGEND
  
 Use, reproduction and disclosure by the US Government is
 subject to restrictions as set forth in subparagraphs (a)
 and (c) of the Commercial Computer Software - Restricted
 Rights clause in FAR 52.227-19.
  
 Gaussian, Inc.
 340 Quinnipiac St., Bldg. 40, Wallingford CT 06492
  
  
 ---------------------------------------------------------------
 Warning -- This program may not be used in any manner that
 competes with the business of Gaussian, Inc. or will provide
 assistance to any competitor of Gaussian, Inc.  The licensee
 of this program is prohibited from giving any competitor of
 Gaussian, Inc. access to this program.  By using this program,
 the user acknowledges that Gaussian, Inc. is engaged in the
 business of creating and licensing software in the field of
 computational chemistry and represents and warrants to the
 licensee that it is not a competitor of Gaussian, Inc. and that
 it will not use this program in any manner prohibited above.
 ---------------------------------------------------------------
  

 Cite this work as:
 Gaussian 16, Revision C.01,
 M. J. Frisch, G. W. Trucks, H. B. Schlegel, G. E. Scuseria, 
 M. A. Robb, J. R. Cheeseman, G. Scalmani, V. Barone, 
 G. A. Petersson, H. Nakatsuji, X. Li, M. Caricato, A. V. Marenich, 
 J. Bloino, B. G. Janesko, R. Gomperts, B. Mennucci, H. P. Hratchian, 
 J. V. Ortiz, A. F. Izmaylov, J. L. Sonnenberg, D. Williams-Young, 
 F. Ding, F. Lipparini, F. Egidi, J. Goings, B. Peng, A. Petrone, 
 T. Henderson, D. Ranasinghe, V. G. Zakrzewski, J. Gao, N. Rega, 
 G. Zheng, W. Liang, M. Hada, M. Ehara, K. Toyota, R. Fukuda, 
 J. Hasegawa, M. Ishida, T. Nakajima, Y. Honda, O. Kitao, H. Nakai, 
 T. Vreven, K. Throssell, J. A. Montgomery, Jr., J. E. Peralta, 
 F. Ogliaro, M. J. Bearpark, J. J. Heyd, E. N. Brothers, K. N. Kudin, 
 V. N. Staroverov, T. A. Keith, R. Kobayashi, J. Normand, 
 K. Raghavachari, A. P. Rendell, J. C. Burant, S. S. Iyengar, 
 J. Tomasi, M. Cossi, J. M. Millam, M. Klene, C. Adamo, R. Cammi, 
 J. W. Ochterski, R. L. Martin, K. Morokuma, O. Farkas, 
 J. B. Foresman, and D. J. Fox, Gaussian, Inc., Wallingford CT, 2019.
 
 ******************************************
 Gaussian 16:  ES64L-G16RevC.01  3-Jul-2019
                 4-Jun-2021 
 ******************************************
 %nproc=8
 Will use up to    8 processors via shared memory.
 %mem=112000MB
 %rwf=/state/partition1/lam.nh/52227/,100GB,/data/lustre/state/partition1/lam.nh/
 52227/,-1
 %chk=2M131.com.chk
 --------------------------------------------------------------------
 #p opt B3LYP/6-31+g(d) pop=npa empiricaldispersion=gd3 Freq fchk=all
 --------------------------------------------------------------------
 1/18=20,19=15,26=3,38=1/1,3;
 2/9=110,12=2,17=6,18=5,40=1/2;
 3/5=1,6=6,7=11,11=2,25=1,30=1,71=1,74=-5,124=31/1,2,3;
 4//1;
 5/5=2,38=5/2;
 6/7=2,8=2,9=2,10=2,28=1,40=-1/1,7;
 7//1,2,3,16;
 1/18=20,19=15,26=3/3(2);
 2/9=110/2;
 99//99;
 2/9=110/2;
 3/5=1,6=6,7=11,11=2,25=1,30=1,71=1,74=-5,124=31/1,2,3;
 4/5=5,16=3,69=1/1;
 5/5=2,38=5/2;
 7//1,2,3,16;
 1/18=20,19=15,26=3/3(-5);
 2/9=110/2;
 6/7=2,8=2,9=2,10=2,19=2,28=1,40=-1/1,7;
 99/9=1/99;
 Leave Link    1 at Fri Jun  4 12:56:29 2021, MaxMem= 14680064000 cpu:               0.2 elap:               0.0
 (Enter /share/apps/gaussian/g16/l101.exe)
 -----
 2M131
 -----
 Symbolic Z-matrix:
 Charge =  0 Multiplicity = 1
 C                    -74.42695  -1.61573   0.06631 
 C                    -74.23285  -0.58743  -0.85059 
 C                    -75.27985   0.28528  -1.15089 
 C                    -76.53515   0.14028  -0.53719 
 C                    -76.73205  -0.90283   0.39311 
 C                    -75.66835  -1.77283   0.68451 
 C                    -77.59845   1.01077  -0.82919 
 C                    -78.85355   0.86508  -0.21509 
 C                    -79.05045  -0.17803   0.71511 
 C                    -77.98715  -1.04842   1.00721 
 C                    -79.91735   1.73508  -0.50669 
 C                    -81.15885   1.57778   0.11151 
 C                    -81.35285   0.54958   1.02841 
 C                    -80.30575  -0.32313   1.32871 
 C                    -78.1703  -2.01872   1.87263 
 N                    -78.33183  -2.87447   2.63589 
 N                    -75.0987   1.20535  -1.97439 
 O                    -76.07607   2.02886  -2.26194 
 O                    -73.93118   1.34763  -2.55124 
 H                    -73.60268  -2.30433   0.3038 
 H                    -73.25493  -0.46233  -1.33847 
 H                    -75.81557  -2.58769   1.40861 
 H                    -77.445    1.82377  -1.5541 
 H                    -79.77015   2.54993  -1.23081 
 H                    -81.98322   2.26623  -0.12607 
 H                    -82.33073   0.42447   1.51635 
 H                    -80.4654  -1.13415   2.05448 
 
 ITRead=  0  0  0  0  0  0  0  0  0  0  0  0  0  0  0  0  0  0  0  0
 ITRead=  0  0  0  0  0  0  0
 MicOpt= -1 -1 -1 -1 -1 -1 -1 -1 -1 -1 -1 -1 -1 -1 -1 -1 -1 -1 -1 -1
 MicOpt= -1 -1 -1 -1 -1 -1 -1
 NAtoms=     27 NQM=       27 NQMF=       0 NMMI=      0 NMMIF=      0
                NMic=       0 NMicF=      0.
                    Isotopes and Nuclear Properties:
 (Nuclear quadrupole moments (NQMom) in fm**2, nuclear magnetic moments (NMagM)
  in nuclear magnetons)

  Atom         1           2           3           4           5           6           7           8           9          10
 IAtWgt=          12          12          12          12          12          12          12          12          12          12
 AtmWgt=  12.0000000  12.0000000  12.0000000  12.0000000  12.0000000  12.0000000  12.0000000  12.0000000  12.0000000  12.0000000
 NucSpn=           0           0           0           0           0           0           0           0           0           0
 AtZEff=  -0.0000000  -0.0000000  -0.0000000  -0.0000000  -0.0000000  -0.0000000  -0.0000000  -0.0000000  -0.0000000  -0.0000000
 NQMom=    0.0000000   0.0000000   0.0000000   0.0000000   0.0000000   0.0000000   0.0000000   0.0000000   0.0000000   0.0000000
 NMagM=    0.0000000   0.0000000   0.0000000   0.0000000   0.0000000   0.0000000   0.0000000   0.0000000   0.0000000   0.0000000
 AtZNuc=   6.0000000   6.0000000   6.0000000   6.0000000   6.0000000   6.0000000   6.0000000   6.0000000   6.0000000   6.0000000

  Atom        11          12          13          14          15          16          17          18          19          20
 IAtWgt=          12          12          12          12          12          14          14          16          16           1
 AtmWgt=  12.0000000  12.0000000  12.0000000  12.0000000  12.0000000  14.0030740  14.0030740  15.9949146  15.9949146   1.0078250
 NucSpn=           0           0           0           0           0           2           2           0           0           1
 AtZEff=  -0.0000000  -0.0000000  -0.0000000  -0.0000000  -0.0000000  -0.0000000  -0.0000000  -0.0000000  -0.0000000  -0.0000000
 NQMom=    0.0000000   0.0000000   0.0000000   0.0000000   0.0000000   2.0440000   2.0440000   0.0000000   0.0000000   0.0000000
 NMagM=    0.0000000   0.0000000   0.0000000   0.0000000   0.0000000   0.4037610   0.4037610   0.0000000   0.0000000   2.7928460
 AtZNuc=   6.0000000   6.0000000   6.0000000   6.0000000   6.0000000   7.0000000   7.0000000   8.0000000   8.0000000   1.0000000

  Atom        21          22          23          24          25          26          27
 IAtWgt=           1           1           1           1           1           1           1
 AtmWgt=   1.0078250   1.0078250   1.0078250   1.0078250   1.0078250   1.0078250   1.0078250
 NucSpn=           1           1           1           1           1           1           1
 AtZEff=  -0.0000000  -0.0000000  -0.0000000  -0.0000000  -0.0000000  -0.0000000  -0.0000000
 NQMom=    0.0000000   0.0000000   0.0000000   0.0000000   0.0000000   0.0000000   0.0000000
 NMagM=    2.7928460   2.7928460   2.7928460   2.7928460   2.7928460   2.7928460   2.7928460
 AtZNuc=   1.0000000   1.0000000   1.0000000   1.0000000   1.0000000   1.0000000   1.0000000
 Leave Link  101 at Fri Jun  4 12:56:30 2021, MaxMem= 14680064000 cpu:               3.0 elap:               0.4
 (Enter /share/apps/gaussian/g16/l103.exe)

 GradGradGradGradGradGradGradGradGradGradGradGradGradGradGradGradGradGrad
 Berny optimization.
 Initialization pass.
                           ----------------------------
                           !    Initial Parameters    !
                           ! (Angstroms and Degrees)  !
 --------------------------                            --------------------------
 ! Name  Definition              Value          Derivative Info.                !
 --------------------------------------------------------------------------------
 ! R1    R(1,2)                  1.3913         estimate D2E/DX2                !
 ! R2    R(1,6)                  1.3957         estimate D2E/DX2                !
 ! R3    R(1,20)                 1.1            estimate D2E/DX2                !
 ! R4    R(2,3)                  1.3957         estimate D2E/DX2                !
 ! R5    R(2,21)                 1.1            estimate D2E/DX2                !
 ! R6    R(3,4)                  1.4048         estimate D2E/DX2                !
 ! R7    R(3,17)                 1.248          estimate D2E/DX2                !
 ! R8    R(4,5)                  1.4115         estimate D2E/DX2                !
 ! R9    R(4,7)                  1.4049         estimate D2E/DX2                !
 ! R10   R(5,6)                  1.4047         estimate D2E/DX2                !
 ! R11   R(5,10)                 1.4048         estimate D2E/DX2                !
 ! R12   R(6,22)                 1.1            estimate D2E/DX2                !
 ! R13   R(7,8)                  1.4049         estimate D2E/DX2                !
 ! R14   R(7,23)                 1.1            estimate D2E/DX2                !
 ! R15   R(8,9)                  1.4114         estimate D2E/DX2                !
 ! R16   R(8,11)                 1.4048         estimate D2E/DX2                !
 ! R17   R(9,10)                 1.4048         estimate D2E/DX2                !
 ! R18   R(9,14)                 1.4048         estimate D2E/DX2                !
 ! R19   R(10,15)                1.313          estimate D2E/DX2                !
 ! R20   R(11,12)                1.3958         estimate D2E/DX2                !
 ! R21   R(11,24)                1.1            estimate D2E/DX2                !
 ! R22   R(12,13)                1.3912         estimate D2E/DX2                !
 ! R23   R(12,25)                1.1            estimate D2E/DX2                !
 ! R24   R(13,14)                1.3958         estimate D2E/DX2                !
 ! R25   R(13,26)                1.1            estimate D2E/DX2                !
 ! R26   R(14,27)                1.1            estimate D2E/DX2                !
 ! R27   R(15,16)                1.158          estimate D2E/DX2                !
 ! R28   R(17,18)                1.31           estimate D2E/DX2                !
 ! R29   R(17,19)                1.31           estimate D2E/DX2                !
 ! A1    A(2,1,6)              119.9457         estimate D2E/DX2                !
 ! A2    A(2,1,20)             120.0272         estimate D2E/DX2                !
 ! A3    A(6,1,20)             120.0271         estimate D2E/DX2                !
 ! A4    A(1,2,3)              119.9517         estimate D2E/DX2                !
 ! A5    A(1,2,21)             120.0241         estimate D2E/DX2                !
 ! A6    A(3,2,21)             120.0242         estimate D2E/DX2                !
 ! A7    A(2,3,4)              120.7835         estimate D2E/DX2                !
 ! A8    A(2,3,17)             119.6082         estimate D2E/DX2                !
 ! A9    A(4,3,17)             119.6082         estimate D2E/DX2                !
 ! A10   A(3,4,5)              119.2661         estimate D2E/DX2                !
 ! A11   A(3,4,7)              121.4376         estimate D2E/DX2                !
 ! A12   A(5,4,7)              119.2962         estimate D2E/DX2                !
 ! A13   A(4,5,6)              119.2608         estimate D2E/DX2                !
 ! A14   A(4,5,10)             119.2966         estimate D2E/DX2                !
 ! A15   A(6,5,10)             121.4426         estimate D2E/DX2                !
 ! A16   A(1,6,5)              120.7921         estimate D2E/DX2                !
 ! A17   A(1,6,22)             119.6039         estimate D2E/DX2                !
 ! A18   A(5,6,22)             119.604          estimate D2E/DX2                !
 ! A19   A(4,7,8)              121.404          estimate D2E/DX2                !
 ! A20   A(4,7,23)             119.298          estimate D2E/DX2                !
 ! A21   A(8,7,23)             119.298          estimate D2E/DX2                !
 ! A22   A(7,8,9)              119.2993         estimate D2E/DX2                !
 ! A23   A(7,8,11)             121.4365         estimate D2E/DX2                !
 ! A24   A(9,8,11)             119.2642         estimate D2E/DX2                !
 ! A25   A(8,9,10)             119.2973         estimate D2E/DX2                !
 ! A26   A(8,9,14)             119.2668         estimate D2E/DX2                !
 ! A27   A(10,9,14)            121.4359         estimate D2E/DX2                !
 ! A28   A(5,10,9)             121.4066         estimate D2E/DX2                !
 ! A29   A(5,10,15)            119.2967         estimate D2E/DX2                !
 ! A30   A(9,10,15)            119.2967         estimate D2E/DX2                !
 ! A31   A(8,11,12)            120.7842         estimate D2E/DX2                !
 ! A32   A(8,11,24)            119.6079         estimate D2E/DX2                !
 ! A33   A(12,11,24)           119.6079         estimate D2E/DX2                !
 ! A34   A(11,12,13)           119.9481         estimate D2E/DX2                !
 ! A35   A(11,12,25)           120.0259         estimate D2E/DX2                !
 ! A36   A(13,12,25)           120.026          estimate D2E/DX2                !
 ! A37   A(12,13,14)           119.9519         estimate D2E/DX2                !
 ! A38   A(12,13,26)           120.0241         estimate D2E/DX2                !
 ! A39   A(14,13,26)           120.024          estimate D2E/DX2                !
 ! A40   A(9,14,13)            120.7848         estimate D2E/DX2                !
 ! A41   A(9,14,27)            119.6076         estimate D2E/DX2                !
 ! A42   A(13,14,27)           119.6076         estimate D2E/DX2                !
 ! A43   A(3,17,18)            120.0            estimate D2E/DX2                !
 ! A44   A(3,17,19)            120.0            estimate D2E/DX2                !
 ! A45   A(18,17,19)           120.0            estimate D2E/DX2                !
 ! A46   L(10,15,16,20,-1)     180.0            estimate D2E/DX2                !
 ! A47   L(10,15,16,20,-2)     180.0            estimate D2E/DX2                !
 ! D1    D(6,1,2,3)             -0.009          estimate D2E/DX2                !
 ! D2    D(6,1,2,21)           179.991          estimate D2E/DX2                !
 ! D3    D(20,1,2,3)           179.991          estimate D2E/DX2                !
 ! D4    D(20,1,2,21)           -0.009          estimate D2E/DX2                !
 ! D5    D(2,1,6,5)              0.0053         estimate D2E/DX2                !
 ! D6    D(2,1,6,22)          -179.9947         estimate D2E/DX2                !
 ! D7    D(20,1,6,5)          -179.9947         estimate D2E/DX2                !
 ! D8    D(20,1,6,22)            0.0053         estimate D2E/DX2                !
 ! D9    D(1,2,3,4)              0.0057         estimate D2E/DX2                !
 ! D10   D(1,2,3,17)          -179.9943         estimate D2E/DX2                !
 ! D11   D(21,2,3,4)          -179.9943         estimate D2E/DX2                !
 ! D12   D(21,2,3,17)            0.0057         estimate D2E/DX2                !
 ! D13   D(2,3,4,5)              0.0012         estimate D2E/DX2                !
 ! D14   D(2,3,4,7)            179.9975         estimate D2E/DX2                !
 ! D15   D(17,3,4,5)          -179.9988         estimate D2E/DX2                !
 ! D16   D(17,3,4,7)            -0.0026         estimate D2E/DX2                !
 ! D17   D(2,3,17,18)          180.0            estimate D2E/DX2                !
 ! D18   D(2,3,17,19)            0.0            estimate D2E/DX2                !
 ! D19   D(4,3,17,18)            0.0            estimate D2E/DX2                !
 ! D20   D(4,3,17,19)         -180.0            estimate D2E/DX2                !
 ! D21   D(3,4,5,6)             -0.0049         estimate D2E/DX2                !
 ! D22   D(3,4,5,10)          -179.9996         estimate D2E/DX2                !
 ! D23   D(7,4,5,6)            179.9988         estimate D2E/DX2                !
 ! D24   D(7,4,5,10)             0.0041         estimate D2E/DX2                !
 ! D25   D(3,4,7,8)            179.9967         estimate D2E/DX2                !
 ! D26   D(3,4,7,23)            -0.0033         estimate D2E/DX2                !
 ! D27   D(5,4,7,8)             -0.0071         estimate D2E/DX2                !
 ! D28   D(5,4,7,23)           179.9929         estimate D2E/DX2                !
 ! D29   D(4,5,6,1)              0.0016         estimate D2E/DX2                !
 ! D30   D(4,5,6,22)          -179.9984         estimate D2E/DX2                !
 ! D31   D(10,5,6,1)           179.9962         estimate D2E/DX2                !
 ! D32   D(10,5,6,22)           -0.0037         estimate D2E/DX2                !
 ! D33   D(4,5,10,9)             0.0022         estimate D2E/DX2                !
 ! D34   D(4,5,10,15)         -179.9977         estimate D2E/DX2                !
 ! D35   D(6,5,10,9)          -179.9924         estimate D2E/DX2                !
 ! D36   D(6,5,10,15)            0.0076         estimate D2E/DX2                !
 ! D37   D(4,7,8,9)              0.0036         estimate D2E/DX2                !
 ! D38   D(4,7,8,11)          -179.9927         estimate D2E/DX2                !
 ! D39   D(23,7,8,9)          -179.9964         estimate D2E/DX2                !
 ! D40   D(23,7,8,11)            0.0073         estimate D2E/DX2                !
 ! D41   D(7,8,9,10)             0.0027         estimate D2E/DX2                !
 ! D42   D(7,8,9,14)          -179.9969         estimate D2E/DX2                !
 ! D43   D(11,8,9,10)          179.9992         estimate D2E/DX2                !
 ! D44   D(11,8,9,14)           -0.0005         estimate D2E/DX2                !
 ! D45   D(7,8,11,12)          179.9994         estimate D2E/DX2                !
 ! D46   D(7,8,11,24)           -0.0007         estimate D2E/DX2                !
 ! D47   D(9,8,11,12)            0.003          estimate D2E/DX2                !
 ! D48   D(9,8,11,24)         -179.997          estimate D2E/DX2                !
 ! D49   D(8,9,10,5)            -0.0057         estimate D2E/DX2                !
 ! D50   D(8,9,10,15)          179.9943         estimate D2E/DX2                !
 ! D51   D(14,9,10,5)          179.994          estimate D2E/DX2                !
 ! D52   D(14,9,10,15)          -0.006          estimate D2E/DX2                !
 ! D53   D(8,9,14,13)           -0.0027         estimate D2E/DX2                !
 ! D54   D(8,9,14,27)          179.9972         estimate D2E/DX2                !
 ! D55   D(10,9,14,13)         179.9976         estimate D2E/DX2                !
 ! D56   D(10,9,14,27)          -0.0024         estimate D2E/DX2                !
 ! D57   D(8,11,12,13)          -0.0023         estimate D2E/DX2                !
 ! D58   D(8,11,12,25)         179.9978         estimate D2E/DX2                !
 ! D59   D(24,11,12,13)        179.9978         estimate D2E/DX2                !
 ! D60   D(24,11,12,25)         -0.0022         estimate D2E/DX2                !
 ! D61   D(11,12,13,14)         -0.001          estimate D2E/DX2                !
 ! D62   D(11,12,13,26)        179.999          estimate D2E/DX2                !
 ! D63   D(25,12,13,14)        179.999          estimate D2E/DX2                !
 ! D64   D(25,12,13,26)         -0.001          estimate D2E/DX2                !
 ! D65   D(12,13,14,9)           0.0035         estimate D2E/DX2                !
 ! D66   D(12,13,14,27)       -179.9965         estimate D2E/DX2                !
 ! D67   D(26,13,14,9)        -179.9965         estimate D2E/DX2                !
 ! D68   D(26,13,14,27)          0.0035         estimate D2E/DX2                !
 --------------------------------------------------------------------------------
 Trust Radius=3.00D-01 FncErr=1.00D-07 GrdErr=1.00D-06 EigMax=2.50D+02 EigMin=1.00D-04
 Number of steps in this run=    154 maximum allowed number of steps=    162.
 GradGradGradGradGradGradGradGradGradGradGradGradGradGradGradGradGradGrad

 Leave Link  103 at Fri Jun  4 12:56:30 2021, MaxMem= 14680064000 cpu:               0.1 elap:               0.0
 (Enter /share/apps/gaussian/g16/l202.exe)
                          Input orientation:                          
 ---------------------------------------------------------------------
 Center     Atomic      Atomic             Coordinates (Angstroms)
 Number     Number       Type             X           Y           Z
 ---------------------------------------------------------------------
      1          6           0      -74.426946   -1.615725    0.066310
      2          6           0      -74.232846   -0.587425   -0.850590
      3          6           0      -75.279846    0.285275   -1.150890
      4          6           0      -76.535146    0.140275   -0.537190
      5          6           0      -76.732046   -0.902825    0.393110
      6          6           0      -75.668346   -1.772825    0.684510
      7          6           0      -77.598446    1.010775   -0.829190
      8          6           0      -78.853546    0.865075   -0.215090
      9          6           0      -79.050446   -0.178025    0.715110
     10          6           0      -77.987146   -1.048425    1.007210
     11          6           0      -79.917346    1.735075   -0.506690
     12          6           0      -81.158846    1.577775    0.111510
     13          6           0      -81.352846    0.549575    1.028410
     14          6           0      -80.305746   -0.323125    1.328710
     15          6           0      -78.170297   -2.018717    1.872634
     16          7           0      -78.331827   -2.874466    2.635894
     17          7           0      -75.098698    1.205352   -1.974386
     18          8           0      -76.076068    2.028856   -2.261942
     19          8           0      -73.931180    1.347634   -2.551237
     20          1           0      -73.602676   -2.304332    0.303798
     21          1           0      -73.254928   -0.462331   -1.338471
     22          1           0      -75.815567   -2.587687    1.408614
     23          1           0      -77.444995    1.823767   -1.554101
     24          1           0      -79.770151    2.549930   -1.230806
     25          1           0      -81.983215    2.266230   -0.126071
     26          1           0      -82.330732    0.424470    1.516352
     27          1           0      -80.465404   -1.134152    2.054482
 ---------------------------------------------------------------------
                    Distance matrix (angstroms):
                    1          2          3          4          5
     1  C    0.000000
     2  C    1.391324   0.000000
     3  C    2.413051   1.395706   0.000000
     4  C    2.809316   2.434821   1.404789   0.000000
     5  C    2.434853   2.809318   2.429898   1.411483   0.000000
     6  C    1.395681   2.412958   2.784852   2.429783   1.404732
     7  C    4.214123   3.725851   2.450663   1.404863   2.430336
     8  C    5.082159   4.885129   3.739415   2.450319   2.827745
     9  C    4.885148   5.082155   4.232497   2.827774   2.450306
    10  C    3.725875   4.214108   3.710205   2.430326   1.404847
    11  C    6.457607   6.150269   4.901359   3.739464   4.232528
    12  C    7.451105   7.320055   6.150354   4.885266   5.082247
    13  C    7.319990   7.451027   6.457595   5.082210   4.885168
    14  C    6.150184   6.457501   5.637219   4.232463   3.739349
    15  C    4.175869   4.996806   4.775435   3.625220   2.345799
    16  N    4.841001   5.847031   5.799852   4.731299   3.387735
    17  N    3.546007   2.286190   1.247999   2.294189   3.566129
    18  O    4.628535   3.497758   2.215509   2.598511   4.009285
    19  O    3.984826   2.593773   2.215509   3.506386   4.645277
    20  H    1.100001   2.162752   3.411023   3.909315   3.430037
    21  H    2.162719   1.100000   2.166655   3.430017   3.909317
    22  H    2.162119   3.407353   3.884838   3.427203   2.170240
    23  H    4.854324   4.077582   2.686523   2.167044   3.425526
    24  H    6.898190   6.375681   5.029701   4.093018   4.877366
    25  H    8.497281   8.290748   7.064672   5.862607   6.155261
    26  H    8.290648   8.497182   7.539798   6.155211   5.862480
    27  H    6.375556   6.898053   6.259329   4.877280   4.092876
                    6          7          8          9         10
     6  C    0.000000
     7  C    3.710122   0.000000
     8  C    4.232410   1.404857   0.000000
     9  C    3.739375   2.430311   1.411417   0.000000
    10  C    2.450658   2.786352   2.430257   1.404822   0.000000
    11  C    5.637226   2.450697   1.404849   2.429869   3.710180
    12  C    6.457588   3.725970   2.434957   2.809362   4.214129
    13  C    6.150232   4.214131   2.809330   2.434873   3.725854
    14  C    4.901235   3.710161   2.429819   1.404755   2.450577
    15  C    2.780622   4.099352   3.625145   2.345777   1.313000
    16  N    3.480753   5.257352   4.731223   3.387716   2.471000
    17  N    4.032836   2.756460   4.160504   4.976287   4.723617
    18  O    4.827069   2.325275   3.641205   4.751851   4.879471
    19  O    4.819240   4.065435   5.469930   6.261274   5.903771
    20  H    2.166664   5.314111   6.155162   5.862470   4.614723
    21  H    3.410928   4.614711   5.862467   6.155165   5.314096
    22  H    1.100000   4.597320   4.877222   4.092904   2.691878
    23  H    4.593837   1.100000   2.167039   3.425487   3.886352
    24  H    6.259349   2.691950   2.170387   3.427288   4.597389
    25  H    7.539800   4.614839   3.430159   3.909361   5.314116
    26  H    7.064521   5.314118   3.909328   3.430053   4.614692
    27  H    5.029562   4.597361   3.427237   2.170300   2.691819
                   11         12         13         14         15
    11  C    0.000000
    12  C    1.395793   0.000000
    13  C    2.413007   1.391236   0.000000
    14  C    2.784912   2.413043   1.395781   0.000000
    15  C    4.775387   4.996773   4.175818   2.780473   0.000000
    16  N    5.799791   5.846965   4.840931   3.480579   1.158000
    17  N    5.064988   6.419895   6.968586   6.352955   5.884633
    18  O    4.233513   5.627733   6.392111   6.026174   6.153321
    19  O    6.337544   7.705994   8.278400   7.647256   6.990928
    20  H    7.539811   8.497260   8.290656   7.064473   4.837973
    21  H    7.064578   8.290742   8.497197   7.539713   6.074075
    22  H    6.259333   6.898129   6.375612   5.029546   2.466535
    23  H    2.686532   4.077678   4.854300   4.593870   5.199352
    24  H    1.100000   2.162261   3.407404   3.884898   5.750079
    25  H    2.166751   1.100000   2.162659   3.411019   6.074038
    26  H    3.410985   2.162640   1.100000   2.166720   4.837904
    27  H    3.884898   3.407426   2.162247   1.100000   2.466382
                   16         17         18         19         20
    16  N    0.000000
    17  N    6.953612   0.000000
    18  O    7.288334   1.310000   0.000000
    19  O    8.006133   1.310000   2.268986   0.000000
    20  H    5.303640   4.443657   5.610455   4.647150   0.000000
    21  H    6.883958   2.566134   3.875260   2.281248   2.492177
    22  H    2.814254   5.132810   5.903669   5.892206   2.489537
    23  H    6.357352   2.462557   1.554690   3.683460   5.937710
    24  H    6.814999   4.917649   3.870531   6.105951   7.997288
    25  H    6.883883   7.206823   6.285911   8.459345   9.555535
    26  H    5.303545   8.068293   7.481336   9.378166   9.224728
    27  H    2.814051   7.106799   6.921157   8.370663   7.178527
                   21         22         23         24         25
    21  H    0.000000
    22  H    4.315146   0.000000
    23  H    4.778012   5.558205   0.000000
    24  H    7.178679   7.000027   2.457271   0.000000
    25  H    9.224855   7.997228   4.778126   2.489694   0.000000
    26  H    9.555451   7.178584   5.937688   4.315209   2.492068
    27  H    7.997152   4.914356   5.558240   4.984873   4.315224
                   26         27
    26  H    0.000000
    27  H    2.489646   0.000000
 Stoichiometry    C15H8N2O2
 Framework group  C1[X(C15H8N2O2)]
 Deg. of freedom    75
 Full point group                 C1      NOp   1
 Largest Abelian subgroup         C1      NOp   1
 Largest concise Abelian subgroup C1      NOp   1
                         Standard orientation:                         
 ---------------------------------------------------------------------
 Center     Atomic      Atomic             Coordinates (Angstroms)
 Number     Number       Type             X           Y           Z
 ---------------------------------------------------------------------
      1          6           0        2.523692    2.223577    0.000166
      2          6           0        3.125244    0.969019    0.000033
      3          6           0        2.336094   -0.182171   -0.000001
      4          6           0        0.934151   -0.092803   -0.000023
      5          6           0        0.323854    1.179920   -0.000037
      6          6           0        1.131992    2.328913    0.000076
      7          6           0        0.126647   -1.242402   -0.000111
      8          6           0       -1.275312   -1.152206   -0.000064
      9          6           0       -1.885569    0.120463   -0.000004
     10          6           0       -1.078100    1.270036   -0.000050
     11          6           0       -2.083461   -2.301334    0.000000
     12          6           0       -3.475263   -2.195869    0.000060
     13          6           0       -4.076718   -0.941361    0.000104
     14          6           0       -3.287477    0.209856    0.000109
     15          6           0       -1.645818    2.453956   -0.000108
     16          7           0       -2.146516    3.498114   -0.000158
     17          7           0        2.882414   -1.304239   -0.000013
     18          8           0        2.149129   -2.389777   -0.000044
     19          8           0        4.189160   -1.396513    0.000008
     20          1           0        3.144450    3.131685    0.000343
     21          1           0        4.221992    0.884499   -0.000045
     22          1           0        0.662322    3.323604    0.000093
     23          1           0        0.602235   -2.234276   -0.000219
     24          1           0       -1.613810   -3.296034    0.000004
     25          1           0       -4.096082   -3.103934    0.000073
     26          1           0       -5.173462   -0.856791    0.000134
     27          1           0       -3.768978    1.198875    0.000203
 ---------------------------------------------------------------------
 Rotational constants (GHZ):           0.6497810           0.3265994           0.2173519
 Leave Link  202 at Fri Jun  4 12:56:30 2021, MaxMem= 14680064000 cpu:               0.1 elap:               0.0
 (Enter /share/apps/gaussian/g16/l301.exe)
 Standard basis: 6-31+G(d) (6D, 7F)
 Ernie: Thresh=  0.10000D-02 Tol=  0.10000D-05 Strict=F.
 There are   377 symmetry adapted cartesian basis functions of A   symmetry.
 There are   377 symmetry adapted basis functions of A   symmetry.
   377 basis functions,   640 primitive gaussians,   377 cartesian basis functions
    64 alpha electrons       64 beta electrons
       nuclear repulsion energy      1295.0968019440 Hartrees.
 IExCor=  402 DFT=T Ex+Corr=B3LYP ExCW=0 ScaHFX=  0.200000
 ScaDFX=  0.800000  0.720000  1.000000  0.810000 ScalE2=  1.000000  1.000000
 IRadAn=      5 IRanWt=     -1 IRanGd=            0 ICorTp=0 IEmpDi=131
 NAtoms=   27 NActive=   27 NUniq=   27 SFac= 1.00D+00 NAtFMM=   60 NAOKFM=F Big=F
 Integral buffers will be    131072 words long.
 Raffenetti 2 integral format.
 Two-electron integral symmetry is turned on.
 R6Disp:  Grimme-D3 Dispersion energy=       -0.0245314846 Hartrees.
 Nuclear repulsion after empirical dispersion term =     1295.0722704594 Hartrees.
 Leave Link  301 at Fri Jun  4 12:56:30 2021, MaxMem= 14680064000 cpu:               0.5 elap:               0.1
 (Enter /share/apps/gaussian/g16/l302.exe)
 NPDir=0 NMtPBC=     1 NCelOv=     1 NCel=       1 NClECP=     1 NCelD=      1
         NCelK=      1 NCelE2=     1 NClLst=     1 CellRange=     0.0.
 One-electron integrals computed using PRISM.
 One-electron integral symmetry used in STVInt
 NBasis=   377 RedAO= T EigKep=  2.26D-06  NBF=   377
 NBsUse=   369 1.00D-06 EigRej=  9.41D-07 NBFU=   369
 Precomputing XC quadrature grid using
 IXCGrd= 4 IRadAn=           5 IRanWt=          -1 IRanGd=           0 AccXCQ= 0.00D+00.
 Generated NRdTot=       0 NPtTot=           0 NUsed=           0 NTot=          32
 NSgBfM=   376   376   376   376   376 MxSgAt=    27 MxSgA2=    27.
 Leave Link  302 at Fri Jun  4 12:56:30 2021, MaxMem= 14680064000 cpu:               2.2 elap:               0.3
 (Enter /share/apps/gaussian/g16/l303.exe)
 DipDrv:  MaxL=1.
 Leave Link  303 at Fri Jun  4 12:56:30 2021, MaxMem= 14680064000 cpu:               0.3 elap:               0.1
 (Enter /share/apps/gaussian/g16/l401.exe)
 ExpMin= 4.38D-02 ExpMax= 5.48D+03 ExpMxC= 8.25D+02 IAcc=3 IRadAn=         5 AccDes= 0.00D+00
 Harris functional with IExCor=  402 and IRadAn=       5 diagonalized for initial guess.
 HarFok:  IExCor=  402 AccDes= 0.00D+00 IRadAn=         5 IDoV= 1 UseB2=F ITyADJ=14
 ICtDFT=  3500011 ScaDFX=  1.000000  1.000000  1.000000  1.000000
 FoFCou: FMM=F IPFlag=           0 FMFlag=      100000 FMFlg1=           0
         NFxFlg=           0 DoJE=T BraDBF=F KetDBF=T FulRan=T
         wScrn=  0.000000 ICntrl=       500 IOpCl=  0 I1Cent=   200000004 NGrid=           0
         NMat0=    1 NMatS0=      1 NMatT0=    0 NMatD0=    1 NMtDS0=    0 NMtDT0=    0
 Petite list used in FoFCou.
 Harris En= -836.224796358056    
 JPrj=0 DoOrth=F DoCkMO=F.
 Leave Link  401 at Fri Jun  4 12:56:32 2021, MaxMem= 14680064000 cpu:              11.3 elap:               1.4
 (Enter /share/apps/gaussian/g16/l502.exe)
 Integral symmetry usage will be decided dynamically.
 Closed shell SCF:
 Using DIIS extrapolation, IDIIS=  1040.
 NGot= 14680064000 LenX= 14679772406 LenY= 14679629836
 Requested convergence on RMS density matrix=1.00D-08 within 128 cycles.
 Requested convergence on MAX density matrix=1.00D-06.
 Requested convergence on             energy=1.00D-06.
 No special actions if energy rises.
 Fock matrices will be formed incrementally for  20 cycles.

 Cycle   1  Pass 1  IDiag  1:
 FoFJK:  IHMeth= 1 ICntrl=       0 DoSepK=F KAlg= 0 I1Cent=           0 FoldK=F
 IRaf= 870000000 NMat=       1 IRICut=       1 DoRegI=T DoRafI=F ISym2E= 0 IDoP0=0 IntGTp=1.
 FoFCou: FMM=F IPFlag=           0 FMFlag=      100000 FMFlg1=           0
         NFxFlg=           0 DoJE=F BraDBF=F KetDBF=F FulRan=T
         wScrn=  0.000000 ICntrl=         0 IOpCl=  0 I1Cent=           0 NGrid=           0
         NMat0=    1 NMatS0=      1 NMatT0=    0 NMatD0=    1 NMtDS0=    0 NMtDT0=    0
 Symmetry not used in FoFCou.
 E= -835.876843751758    
 DIIS: error= 2.78D-02 at cycle   1 NSaved=   1.
 NSaved= 1 IEnMin= 1 EnMin= -835.876843751758     IErMin= 1 ErrMin= 2.78D-02
 ErrMax= 2.78D-02  0.00D+00 EMaxC= 1.00D-01 BMatC= 3.97D-01 BMatP= 3.97D-01
 IDIUse=3 WtCom= 7.22D-01 WtEn= 2.78D-01
 Coeff-Com:  0.100D+01
 Coeff-En:   0.100D+01
 Coeff:      0.100D+01
 Gap=     0.061 Goal=   None    Shift=    0.000
 GapD=    0.061 DampG=0.500 DampE=0.500 DampFc=0.2500 IDamp=-1.
 Damping current iteration by 2.50D-01
 RMSDP=2.77D-02 MaxDP=2.78D+00              OVMax= 4.75D-01

 Cycle   2  Pass 1  IDiag  1:
 RMSU=  5.92D-03    CP:  9.36D-01
 E= -835.996492544925     Delta-E=       -0.119648793167 Rises=F Damp=T
 DIIS: error= 1.81D-02 at cycle   2 NSaved=   2.
 NSaved= 2 IEnMin= 2 EnMin= -835.996492544925     IErMin= 2 ErrMin= 1.81D-02
 ErrMax= 1.81D-02  0.00D+00 EMaxC= 1.00D-01 BMatC= 8.92D-02 BMatP= 3.97D-01
 IDIUse=3 WtCom= 8.19D-01 WtEn= 1.81D-01
 Coeff-Com: -0.522D+00 0.152D+01
 Coeff-En:   0.000D+00 0.100D+01
 Coeff:     -0.427D+00 0.143D+01
 Gap=     0.074 Goal=   None    Shift=    0.000
 RMSDP=1.52D-02 MaxDP=1.65D+00 DE=-1.20D-01 OVMax= 4.87D-01

 Cycle   3  Pass 1  IDiag  1:
 RMSU=  7.00D-03    CP:  6.98D-01  1.25D+00
 E= -836.174799865748     Delta-E=       -0.178307320823 Rises=F Damp=F
 DIIS: error= 1.32D-02 at cycle   3 NSaved=   3.
 NSaved= 3 IEnMin= 3 EnMin= -836.174799865748     IErMin= 3 ErrMin= 1.32D-02
 ErrMax= 1.32D-02  0.00D+00 EMaxC= 1.00D-01 BMatC= 5.24D-02 BMatP= 8.92D-02
 IDIUse=3 WtCom= 8.68D-01 WtEn= 1.32D-01
 Coeff-Com: -0.351D+00 0.849D+00 0.503D+00
 Coeff-En:   0.000D+00 0.000D+00 0.100D+01
 Coeff:     -0.305D+00 0.736D+00 0.569D+00
 Gap=     0.137 Goal=   None    Shift=    0.000
 RMSDP=4.75D-03 MaxDP=1.94D-01 DE=-1.78D-01 OVMax= 2.57D-01

 Cycle   4  Pass 1  IDiag  1:
 RMSU=  3.65D-03    CP:  7.36D-01  1.35D+00  6.99D-01
 E= -836.205519647231     Delta-E=       -0.030719781483 Rises=F Damp=F
 DIIS: error= 1.16D-02 at cycle   4 NSaved=   4.
 NSaved= 4 IEnMin= 4 EnMin= -836.205519647231     IErMin= 4 ErrMin= 1.16D-02
 ErrMax= 1.16D-02  0.00D+00 EMaxC= 1.00D-01 BMatC= 2.79D-02 BMatP= 5.24D-02
 IDIUse=3 WtCom= 8.84D-01 WtEn= 1.16D-01
 Coeff-Com: -0.157D+00 0.363D+00 0.401D+00 0.393D+00
 Coeff-En:   0.000D+00 0.000D+00 0.370D+00 0.630D+00
 Coeff:     -0.138D+00 0.320D+00 0.398D+00 0.420D+00
 Gap=     0.079 Goal=   None    Shift=    0.000
 RMSDP=2.06D-03 MaxDP=1.42D-01 DE=-3.07D-02 OVMax= 1.76D-01

 Cycle   5  Pass 1  IDiag  1:
 RMSU=  1.34D-03    CP:  7.37D-01  1.22D+00  7.81D-01  6.67D-01
 E= -836.232133013329     Delta-E=       -0.026613366098 Rises=F Damp=F
 DIIS: error= 5.46D-03 at cycle   5 NSaved=   5.
 NSaved= 5 IEnMin= 5 EnMin= -836.232133013329     IErMin= 5 ErrMin= 5.46D-03
 ErrMax= 5.46D-03  0.00D+00 EMaxC= 1.00D-01 BMatC= 6.14D-03 BMatP= 2.79D-02
 IDIUse=3 WtCom= 9.45D-01 WtEn= 5.46D-02
 Coeff-Com: -0.355D-01 0.820D-01 0.201D+00 0.336D+00 0.416D+00
 Coeff-En:   0.000D+00 0.000D+00 0.000D+00 0.193D+00 0.807D+00
 Coeff:     -0.336D-01 0.775D-01 0.190D+00 0.328D+00 0.438D+00
 Gap=     0.081 Goal=   None    Shift=    0.000
 RMSDP=9.28D-04 MaxDP=6.24D-02 DE=-2.66D-02 OVMax= 3.97D-02

 Cycle   6  Pass 1  IDiag  1:
 RMSU=  6.06D-04    CP:  7.29D-01  1.23D+00  7.82D-01  6.11D-01  6.21D-01
 E= -836.237129551174     Delta-E=       -0.004996537845 Rises=F Damp=F
 DIIS: error= 2.36D-03 at cycle   6 NSaved=   6.
 NSaved= 6 IEnMin= 6 EnMin= -836.237129551174     IErMin= 6 ErrMin= 2.36D-03
 ErrMax= 2.36D-03  0.00D+00 EMaxC= 1.00D-01 BMatC= 1.27D-03 BMatP= 6.14D-03
 IDIUse=3 WtCom= 9.76D-01 WtEn= 2.36D-02
 Coeff-Com: -0.114D-01 0.226D-01 0.920D-01 0.188D+00 0.342D+00 0.367D+00
 Coeff-En:   0.000D+00 0.000D+00 0.000D+00 0.000D+00 0.177D+00 0.823D+00
 Coeff:     -0.111D-01 0.220D-01 0.898D-01 0.183D+00 0.338D+00 0.378D+00
 Gap=     0.081 Goal=   None    Shift=    0.000
 RMSDP=4.23D-04 MaxDP=2.19D-02 DE=-5.00D-03 OVMax= 1.91D-02

 Cycle   7  Pass 1  IDiag  1:
 RMSU=  2.85D-04    CP:  7.30D-01  1.25D+00  7.73D-01  6.36D-01  5.57D-01
                    CP:  5.74D-01
 E= -836.238078659999     Delta-E=       -0.000949108825 Rises=F Damp=F
 DIIS: error= 8.52D-04 at cycle   7 NSaved=   7.
 NSaved= 7 IEnMin= 7 EnMin= -836.238078659999     IErMin= 7 ErrMin= 8.52D-04
 ErrMax= 8.52D-04  0.00D+00 EMaxC= 1.00D-01 BMatC= 1.48D-04 BMatP= 1.27D-03
 IDIUse=3 WtCom= 9.91D-01 WtEn= 8.52D-03
 Coeff-Com: -0.401D-02 0.483D-02 0.223D-01 0.542D-01 0.157D+00 0.282D+00
 Coeff-Com:  0.484D+00
 Coeff-En:   0.000D+00 0.000D+00 0.000D+00 0.000D+00 0.000D+00 0.138D+00
 Coeff-En:   0.862D+00
 Coeff:     -0.398D-02 0.479D-02 0.221D-01 0.537D-01 0.155D+00 0.281D+00
 Coeff:      0.487D+00
 Gap=     0.082 Goal=   None    Shift=    0.000
 RMSDP=1.58D-04 MaxDP=7.00D-03 DE=-9.49D-04 OVMax= 1.07D-02

 Cycle   8  Pass 1  IDiag  1:
 RMSU=  1.02D-04    CP:  7.29D-01  1.25D+00  7.77D-01  6.28D-01  5.82D-01
                    CP:  6.26D-01  6.40D-01
 E= -836.238219939741     Delta-E=       -0.000141279743 Rises=F Damp=F
 DIIS: error= 2.82D-04 at cycle   8 NSaved=   8.
 NSaved= 8 IEnMin= 8 EnMin= -836.238219939741     IErMin= 8 ErrMin= 2.82D-04
 ErrMax= 2.82D-04  0.00D+00 EMaxC= 1.00D-01 BMatC= 2.89D-05 BMatP= 1.48D-04
 IDIUse=3 WtCom= 9.97D-01 WtEn= 2.82D-03
 Coeff-Com: -0.113D-02-0.355D-03 0.934D-03 0.921D-02 0.634D-01 0.153D+00
 Coeff-Com:  0.365D+00 0.410D+00
 Coeff-En:   0.000D+00 0.000D+00 0.000D+00 0.000D+00 0.000D+00 0.000D+00
 Coeff-En:   0.161D+00 0.839D+00
 Coeff:     -0.112D-02-0.354D-03 0.931D-03 0.918D-02 0.632D-01 0.152D+00
 Coeff:      0.365D+00 0.411D+00
 Gap=     0.082 Goal=   None    Shift=    0.000
 RMSDP=6.06D-05 MaxDP=2.71D-03 DE=-1.41D-04 OVMax= 1.98D-03

 Cycle   9  Pass 1  IDiag  1:
 RMSU=  3.29D-05    CP:  7.30D-01  1.24D+00  7.76D-01  6.32D-01  5.94D-01
                    CP:  6.23D-01  6.79D-01  6.37D-01
 E= -836.238248896170     Delta-E=       -0.000028956429 Rises=F Damp=F
 DIIS: error= 5.24D-05 at cycle   9 NSaved=   9.
 NSaved= 9 IEnMin= 9 EnMin= -836.238248896170     IErMin= 9 ErrMin= 5.24D-05
 ErrMax= 5.24D-05  0.00D+00 EMaxC= 1.00D-01 BMatC= 1.24D-06 BMatP= 2.89D-05
 IDIUse=1 WtCom= 1.00D+00 WtEn= 0.00D+00
 Coeff-Com: -0.930D-03 0.494D-03-0.161D-02 0.886D-04 0.205D-01 0.617D-01
 Coeff-Com:  0.168D+00 0.228D+00 0.525D+00
 Coeff:     -0.930D-03 0.494D-03-0.161D-02 0.886D-04 0.205D-01 0.617D-01
 Coeff:      0.168D+00 0.228D+00 0.525D+00
 Gap=     0.082 Goal=   None    Shift=    0.000
 RMSDP=1.56D-05 MaxDP=1.07D-03 DE=-2.90D-05 OVMax= 5.66D-04

 Cycle  10  Pass 1  IDiag  1:
 RMSU=  1.25D-05    CP:  7.30D-01  1.24D+00  7.76D-01  6.32D-01  5.94D-01
                    CP:  6.28D-01  6.88D-01  6.78D-01  8.08D-01
 E= -836.238249520930     Delta-E=       -0.000000624760 Rises=F Damp=F
 DIIS: error= 4.24D-05 at cycle  10 NSaved=  10.
 NSaved=10 IEnMin=10 EnMin= -836.238249520930     IErMin=10 ErrMin= 4.24D-05
 ErrMax= 4.24D-05  0.00D+00 EMaxC= 1.00D-01 BMatC= 6.10D-07 BMatP= 1.24D-06
 IDIUse=1 WtCom= 1.00D+00 WtEn= 0.00D+00
 Coeff-Com: -0.563D-03 0.587D-03-0.166D-02-0.200D-02 0.179D-03 0.115D-01
 Coeff-Com:  0.414D-01 0.700D-01 0.420D+00 0.461D+00
 Coeff:     -0.563D-03 0.587D-03-0.166D-02-0.200D-02 0.179D-03 0.115D-01
 Coeff:      0.414D-01 0.700D-01 0.420D+00 0.461D+00
 Gap=     0.082 Goal=   None    Shift=    0.000
 RMSDP=7.20D-06 MaxDP=5.18D-04 DE=-6.25D-07 OVMax= 2.17D-04

 Cycle  11  Pass 1  IDiag  1:
 RMSU=  4.96D-06    CP:  7.30D-01  1.24D+00  7.76D-01  6.31D-01  5.95D-01
                    CP:  6.30D-01  6.89D-01  6.72D-01  8.27D-01  6.34D-01
 E= -836.238250103436     Delta-E=       -0.000000582506 Rises=F Damp=F
 DIIS: error= 1.38D-05 at cycle  11 NSaved=  11.
 NSaved=11 IEnMin=11 EnMin= -836.238250103436     IErMin=11 ErrMin= 1.38D-05
 ErrMax= 1.38D-05  0.00D+00 EMaxC= 1.00D-01 BMatC= 4.00D-08 BMatP= 6.10D-07
 IDIUse=1 WtCom= 1.00D+00 WtEn= 0.00D+00
 Coeff-Com: -0.315D-03 0.399D-03-0.877D-03-0.108D-02-0.192D-02 0.129D-02
 Coeff-Com:  0.912D-02 0.154D-01 0.196D+00 0.259D+00 0.523D+00
 Coeff:     -0.315D-03 0.399D-03-0.877D-03-0.108D-02-0.192D-02 0.129D-02
 Coeff:      0.912D-02 0.154D-01 0.196D+00 0.259D+00 0.523D+00
 Gap=     0.082 Goal=   None    Shift=    0.000
 RMSDP=2.66D-06 MaxDP=2.02D-04 DE=-5.83D-07 OVMax= 9.19D-05

 Cycle  12  Pass 1  IDiag  1:
 RMSU=  1.62D-06    CP:  7.30D-01  1.24D+00  7.76D-01  6.32D-01  5.94D-01
                    CP:  6.30D-01  6.92D-01  6.74D-01  8.49D-01  6.71D-01
                    CP:  7.81D-01
 E= -836.238250144145     Delta-E=       -0.000000040709 Rises=F Damp=F
 DIIS: error= 4.62D-06 at cycle  12 NSaved=  12.
 NSaved=12 IEnMin=12 EnMin= -836.238250144145     IErMin=12 ErrMin= 4.62D-06
 ErrMax= 4.62D-06  0.00D+00 EMaxC= 1.00D-01 BMatC= 6.66D-09 BMatP= 4.00D-08
 IDIUse=1 WtCom= 1.00D+00 WtEn= 0.00D+00
 Coeff-Com: -0.118D-03 0.171D-03-0.292D-03-0.324D-03-0.136D-02-0.138D-02
 Coeff-Com: -0.193D-02-0.544D-02 0.429D-01 0.623D-01 0.309D+00 0.597D+00
 Coeff:     -0.118D-03 0.171D-03-0.292D-03-0.324D-03-0.136D-02-0.138D-02
 Coeff:     -0.193D-02-0.544D-02 0.429D-01 0.623D-01 0.309D+00 0.597D+00
 Gap=     0.082 Goal=   None    Shift=    0.000
 RMSDP=1.38D-06 MaxDP=6.54D-05 DE=-4.07D-08 OVMax= 5.30D-05

 Cycle  13  Pass 1  IDiag  1:
 RMSU=  9.20D-07    CP:  7.30D-01  1.24D+00  7.76D-01  6.32D-01  5.94D-01
                    CP:  6.30D-01  6.93D-01  6.76D-01  8.50D-01  6.72D-01
                    CP:  8.23D-01  7.54D-01
 E= -836.238250150895     Delta-E=       -0.000000006750 Rises=F Damp=F
 DIIS: error= 2.81D-06 at cycle  13 NSaved=  13.
 NSaved=13 IEnMin=13 EnMin= -836.238250150895     IErMin=13 ErrMin= 2.81D-06
 ErrMax= 2.81D-06  0.00D+00 EMaxC= 1.00D-01 BMatC= 1.02D-09 BMatP= 6.66D-09
 IDIUse=1 WtCom= 1.00D+00 WtEn= 0.00D+00
 Coeff-Com: -0.259D-04 0.424D-04-0.591D-04-0.237D-04-0.580D-03-0.114D-02
 Coeff-Com: -0.277D-02-0.693D-02-0.566D-02-0.551D-02 0.117D+00 0.373D+00
 Coeff-Com:  0.533D+00
 Coeff:     -0.259D-04 0.424D-04-0.591D-04-0.237D-04-0.580D-03-0.114D-02
 Coeff:     -0.277D-02-0.693D-02-0.566D-02-0.551D-02 0.117D+00 0.373D+00
 Coeff:      0.533D+00
 Gap=     0.082 Goal=   None    Shift=    0.000
 RMSDP=5.50D-07 MaxDP=5.00D-05 DE=-6.75D-09 OVMax= 1.87D-05

 Cycle  14  Pass 1  IDiag  1:
 RMSU=  2.76D-07    CP:  7.30D-01  1.24D+00  7.76D-01  6.32D-01  5.94D-01
                    CP:  6.30D-01  6.93D-01  6.76D-01  8.55D-01  6.71D-01
                    CP:  8.33D-01  7.71D-01  7.32D-01
 E= -836.238250152001     Delta-E=       -0.000000001105 Rises=F Damp=F
 DIIS: error= 8.09D-07 at cycle  14 NSaved=  14.
 NSaved=14 IEnMin=14 EnMin= -836.238250152001     IErMin=14 ErrMin= 8.09D-07
 ErrMax= 8.09D-07  0.00D+00 EMaxC= 1.00D-01 BMatC= 1.14D-10 BMatP= 1.02D-09
 IDIUse=1 WtCom= 1.00D+00 WtEn= 0.00D+00
 Coeff-Com: -0.749D-05 0.142D-04-0.403D-05 0.186D-04-0.159D-03-0.423D-03
 Coeff-Com: -0.991D-03-0.294D-02-0.655D-02-0.905D-02 0.248D-01 0.116D+00
 Coeff-Com:  0.302D+00 0.576D+00
 Coeff:     -0.749D-05 0.142D-04-0.403D-05 0.186D-04-0.159D-03-0.423D-03
 Coeff:     -0.991D-03-0.294D-02-0.655D-02-0.905D-02 0.248D-01 0.116D+00
 Coeff:      0.302D+00 0.576D+00
 Gap=     0.082 Goal=   None    Shift=    0.000
 RMSDP=1.44D-07 MaxDP=1.20D-05 DE=-1.11D-09 OVMax= 6.20D-06

 Cycle  15  Pass 1  IDiag  1:
 RMSU=  9.19D-08    CP:  7.30D-01  1.24D+00  7.76D-01  6.32D-01  5.94D-01
                    CP:  6.30D-01  6.93D-01  6.76D-01  8.55D-01  6.75D-01
                    CP:  8.45D-01  7.69D-01  7.67D-01  8.33D-01
 E= -836.238250152099     Delta-E=       -0.000000000099 Rises=F Damp=F
 DIIS: error= 1.95D-07 at cycle  15 NSaved=  15.
 NSaved=15 IEnMin=15 EnMin= -836.238250152099     IErMin=15 ErrMin= 1.95D-07
 ErrMax= 1.95D-07  0.00D+00 EMaxC= 1.00D-01 BMatC= 1.54D-11 BMatP= 1.14D-10
 IDIUse=1 WtCom= 1.00D+00 WtEn= 0.00D+00
 Coeff-Com: -0.949D-06 0.179D-05 0.408D-05 0.192D-04-0.111D-04-0.801D-04
 Coeff-Com: -0.131D-03-0.784D-03-0.286D-02-0.440D-02-0.751D-03 0.156D-01
 Coeff-Com:  0.108D+00 0.309D+00 0.577D+00
 Coeff:     -0.949D-06 0.179D-05 0.408D-05 0.192D-04-0.111D-04-0.801D-04
 Coeff:     -0.131D-03-0.784D-03-0.286D-02-0.440D-02-0.751D-03 0.156D-01
 Coeff:      0.108D+00 0.309D+00 0.577D+00
 Gap=     0.082 Goal=   None    Shift=    0.000
 RMSDP=7.30D-08 MaxDP=8.46D-06 DE=-9.87D-11 OVMax= 1.43D-06

 Cycle  16  Pass 1  IDiag  1:
 RMSU=  2.42D-08    CP:  7.30D-01  1.24D+00  7.76D-01  6.32D-01  5.94D-01
                    CP:  6.30D-01  6.93D-01  6.76D-01  8.55D-01  6.74D-01
                    CP:  8.45D-01  7.78D-01  7.88D-01  8.44D-01  7.33D-01
 E= -836.238250152113     Delta-E=       -0.000000000014 Rises=F Damp=F
 DIIS: error= 1.27D-07 at cycle  16 NSaved=  16.
 NSaved=16 IEnMin=16 EnMin= -836.238250152113     IErMin=16 ErrMin= 1.27D-07
 ErrMax= 1.27D-07  0.00D+00 EMaxC= 1.00D-01 BMatC= 1.94D-12 BMatP= 1.54D-11
 IDIUse=1 WtCom= 1.00D+00 WtEn= 0.00D+00
 Coeff-Com: -0.122D-06 0.141D-06 0.185D-05 0.925D-05 0.343D-05-0.759D-05
 Coeff-Com:  0.290D-04-0.174D-03-0.887D-03-0.157D-02-0.258D-02-0.204D-02
 Coeff-Com:  0.324D-01 0.107D+00 0.286D+00 0.582D+00
 Coeff:     -0.122D-06 0.141D-06 0.185D-05 0.925D-05 0.343D-05-0.759D-05
 Coeff:      0.290D-04-0.174D-03-0.887D-03-0.157D-02-0.258D-02-0.204D-02
 Coeff:      0.324D-01 0.107D+00 0.286D+00 0.582D+00
 Gap=     0.082 Goal=   None    Shift=    0.000
 RMSDP=1.70D-08 MaxDP=1.26D-06 DE=-1.36D-11 OVMax= 5.96D-07

 Cycle  17  Pass 1  IDiag  1:
 RMSU=  1.11D-08    CP:  7.30D-01  1.24D+00  7.76D-01  6.32D-01  5.94D-01
                    CP:  6.30D-01  6.93D-01  6.76D-01  8.55D-01  6.74D-01
                    CP:  8.45D-01  7.77D-01  7.92D-01  8.46D-01  7.25D-01
                    CP:  9.10D-01
 E= -836.238250152129     Delta-E=       -0.000000000016 Rises=F Damp=F
 DIIS: error= 4.48D-08 at cycle  17 NSaved=  17.
 NSaved=17 IEnMin=17 EnMin= -836.238250152129     IErMin=17 ErrMin= 4.48D-08
 ErrMax= 4.48D-08  0.00D+00 EMaxC= 1.00D-01 BMatC= 4.20D-13 BMatP= 1.94D-12
 IDIUse=1 WtCom= 1.00D+00 WtEn= 0.00D+00
 Coeff-Com:  0.104D-06-0.237D-06 0.293D-06 0.271D-05 0.267D-05 0.105D-04
 Coeff-Com:  0.451D-04 0.305D-04 0.713D-05-0.182D-03-0.150D-02-0.435D-02
 Coeff-Com: -0.433D-03 0.448D-02 0.588D-01 0.350D+00 0.593D+00
 Coeff:      0.104D-06-0.237D-06 0.293D-06 0.271D-05 0.267D-05 0.105D-04
 Coeff:      0.451D-04 0.305D-04 0.713D-05-0.182D-03-0.150D-02-0.435D-02
 Coeff:     -0.433D-03 0.448D-02 0.588D-01 0.350D+00 0.593D+00
 Gap=     0.082 Goal=   None    Shift=    0.000
 RMSDP=5.89D-09 MaxDP=1.85D-07 DE=-1.64D-11 OVMax= 1.91D-07

 SCF Done:  E(RB3LYP) =  -836.238250152     A.U. after   17 cycles
            NFock= 17  Conv=0.59D-08     -V/T= 2.0081
 KE= 8.295077304851D+02 PE=-4.532811454799D+03 EE= 1.571993203703D+03
 Leave Link  502 at Fri Jun  4 12:57:42 2021, MaxMem= 14680064000 cpu:             560.6 elap:              70.3
 (Enter /share/apps/gaussian/g16/l601.exe)
 Copying SCF densities to generalized density rwf, IOpCl= 0 IROHF=0.

 **********************************************************************

            Population analysis using the SCF Density.

 **********************************************************************

 Orbital symmetries:
       Occupied  (A) (A) (A) (A) (A) (A) (A) (A) (A) (A) (A) (A)
                 (A) (A) (A) (A) (A) (A) (A) (A) (A) (A) (A) (A)
                 (A) (A) (A) (A) (A) (A) (A) (A) (A) (A) (A) (A)
                 (A) (A) (A) (A) (A) (A) (A) (A) (A) (A) (A) (A)
                 (A) (A) (A) (A) (A) (A) (A) (A) (A) (A) (A) (A)
                 (A) (A) (A) (A)
       Virtual   (A) (A) (A) (A) (A) (A) (A) (A) (A) (A) (A) (A)
                 (A) (A) (A) (A) (A) (A) (A) (A) (A) (A) (A) (A)
                 (A) (A) (A) (A) (A) (A) (A) (A) (A) (A) (A) (A)
                 (A) (A) (A) (A) (A) (A) (A) (A) (A) (A) (A) (A)
                 (A) (A) (A) (A) (A) (A) (A) (A) (A) (A) (A) (A)
                 (A) (A) (A) (A) (A) (A) (A) (A) (A) (A) (A) (A)
                 (A) (A) (A) (A) (A) (A) (A) (A) (A) (A) (A) (A)
                 (A) (A) (A) (A) (A) (A) (A) (A) (A) (A) (A) (A)
                 (A) (A) (A) (A) (A) (A) (A) (A) (A) (A) (A) (A)
                 (A) (A) (A) (A) (A) (A) (A) (A) (A) (A) (A) (A)
                 (A) (A) (A) (A) (A) (A) (A) (A) (A) (A) (A) (A)
                 (A) (A) (A) (A) (A) (A) (A) (A) (A) (A) (A) (A)
                 (A) (A) (A) (A) (A) (A) (A) (A) (A) (A) (A) (A)
                 (A) (A) (A) (A) (A) (A) (A) (A) (A) (A) (A) (A)
                 (A) (A) (A) (A) (A) (A) (A) (A) (A) (A) (A) (A)
                 (A) (A) (A) (A) (A) (A) (A) (A) (A) (A) (A) (A)
                 (A) (A) (A) (A) (A) (A) (A) (A) (A) (A) (A) (A)
                 (A) (A) (A) (A) (A) (A) (A) (A) (A) (A) (A) (A)
                 (A) (A) (A) (A) (A) (A) (A) (A) (A) (A) (A) (A)
                 (A) (A) (A) (A) (A) (A) (A) (A) (A) (A) (A) (A)
                 (A) (A) (A) (A) (A) (A) (A) (A) (A) (A) (A) (A)
                 (A) (A) (A) (A) (A) (A) (A) (A) (A) (A) (A) (A)
                 (A) (A) (A) (A) (A) (A) (A) (A) (A) (A) (A) (A)
                 (A) (A) (A) (A) (A) (A) (A) (A) (A) (A) (A) (A)
                 (A) (A) (A) (A) (A) (A) (A) (A) (A) (A) (A) (A)
                 (A) (A) (A) (A) (A)
 The electronic state is 1-A.
 Alpha  occ. eigenvalues --  -19.18131 -19.18128 -14.56440 -14.35881 -10.26960
 Alpha  occ. eigenvalues --  -10.25740 -10.25640 -10.25471 -10.25091 -10.24715
 Alpha  occ. eigenvalues --  -10.24472 -10.24309 -10.24291 -10.23385 -10.23044
 Alpha  occ. eigenvalues --  -10.22902 -10.22772 -10.22655 -10.21823  -1.19711
 Alpha  occ. eigenvalues --   -1.01836  -0.95573  -0.93488  -0.91187  -0.88080
 Alpha  occ. eigenvalues --   -0.84872  -0.83025  -0.79416  -0.77261  -0.74112
 Alpha  occ. eigenvalues --   -0.69842  -0.67143  -0.66430  -0.62209  -0.60504
 Alpha  occ. eigenvalues --   -0.57649  -0.56337  -0.53976  -0.53851  -0.53339
 Alpha  occ. eigenvalues --   -0.50894  -0.50190  -0.49435  -0.48298  -0.45923
 Alpha  occ. eigenvalues --   -0.45898  -0.45355  -0.43273  -0.41829  -0.40927
 Alpha  occ. eigenvalues --   -0.40644  -0.39476  -0.38798  -0.38193  -0.37570
 Alpha  occ. eigenvalues --   -0.35228  -0.34774  -0.32304  -0.31040  -0.30962
 Alpha  occ. eigenvalues --   -0.29841  -0.29212  -0.26978  -0.23803
 Alpha virt. eigenvalues --   -0.15596  -0.09724  -0.05610  -0.03500  -0.01535
 Alpha virt. eigenvalues --   -0.00835  -0.00302   0.00441   0.01116   0.01347
 Alpha virt. eigenvalues --    0.01601   0.02513   0.03654   0.03799   0.04389
 Alpha virt. eigenvalues --    0.04626   0.05294   0.05892   0.05944   0.06974
 Alpha virt. eigenvalues --    0.07528   0.07589   0.08556   0.08793   0.09484
 Alpha virt. eigenvalues --    0.09867   0.10640   0.11047   0.11512   0.11624
 Alpha virt. eigenvalues --    0.12116   0.12585   0.13414   0.13563   0.13797
 Alpha virt. eigenvalues --    0.14195   0.14903   0.15333   0.16090   0.16383
 Alpha virt. eigenvalues --    0.16464   0.16674   0.16699   0.16967   0.17324
 Alpha virt. eigenvalues --    0.18110   0.18416   0.18811   0.19488   0.19677
 Alpha virt. eigenvalues --    0.19870   0.20551   0.20873   0.21216   0.21797
 Alpha virt. eigenvalues --    0.21986   0.22477   0.23006   0.23167   0.23242
 Alpha virt. eigenvalues --    0.23995   0.24152   0.24578   0.25078   0.25536
 Alpha virt. eigenvalues --    0.25831   0.26157   0.26436   0.26548   0.27121
 Alpha virt. eigenvalues --    0.27441   0.27778   0.28064   0.28623   0.29127
 Alpha virt. eigenvalues --    0.29209   0.29312   0.30258   0.30926   0.31293
 Alpha virt. eigenvalues --    0.31400   0.31891   0.32716   0.33825   0.34800
 Alpha virt. eigenvalues --    0.34949   0.35145   0.36895   0.37331   0.38223
 Alpha virt. eigenvalues --    0.39032   0.39939   0.40873   0.41913   0.43016
 Alpha virt. eigenvalues --    0.45611   0.47020   0.47714   0.49030   0.50416
 Alpha virt. eigenvalues --    0.51793   0.54708   0.56625   0.57999   0.60932
 Alpha virt. eigenvalues --    0.62335   0.63226   0.64012   0.64181   0.65443
 Alpha virt. eigenvalues --    0.67090   0.67943   0.68594   0.69463   0.69699
 Alpha virt. eigenvalues --    0.70128   0.70779   0.71392   0.71520   0.72049
 Alpha virt. eigenvalues --    0.72168   0.74380   0.75249   0.76041   0.76434
 Alpha virt. eigenvalues --    0.76465   0.77616   0.77882   0.79230   0.80444
 Alpha virt. eigenvalues --    0.82882   0.83821   0.83876   0.85982   0.87040
 Alpha virt. eigenvalues --    0.87369   0.87765   0.88642   0.90173   0.90334
 Alpha virt. eigenvalues --    0.91037   0.93198   0.94765   0.97318   0.99158
 Alpha virt. eigenvalues --    0.99344   1.01192   1.02217   1.02914   1.05394
 Alpha virt. eigenvalues --    1.06165   1.06837   1.08171   1.10407   1.10972
 Alpha virt. eigenvalues --    1.12207   1.12697   1.15195   1.15424   1.15671
 Alpha virt. eigenvalues --    1.16430   1.17374   1.17976   1.20194   1.20884
 Alpha virt. eigenvalues --    1.21699   1.21970   1.22947   1.23555   1.24238
 Alpha virt. eigenvalues --    1.25582   1.27483   1.30080   1.30535   1.31322
 Alpha virt. eigenvalues --    1.32997   1.33950   1.34573   1.35992   1.37795
 Alpha virt. eigenvalues --    1.38052   1.39884   1.40543   1.41298   1.42030
 Alpha virt. eigenvalues --    1.43029   1.44488   1.44561   1.45093   1.45382
 Alpha virt. eigenvalues --    1.46741   1.46751   1.50163   1.50212   1.53076
 Alpha virt. eigenvalues --    1.54855   1.57145   1.61392   1.64146   1.66962
 Alpha virt. eigenvalues --    1.70394   1.72079   1.74698   1.75273   1.79487
 Alpha virt. eigenvalues --    1.79930   1.79951   1.80413   1.82730   1.84758
 Alpha virt. eigenvalues --    1.84882   1.86539   1.86885   1.89851   1.90237
 Alpha virt. eigenvalues --    1.91111   1.91915   1.92066   1.92484   1.93315
 Alpha virt. eigenvalues --    1.94822   1.95241   1.98350   1.98740   2.00216
 Alpha virt. eigenvalues --    2.01946   2.02183   2.04273   2.05733   2.08329
 Alpha virt. eigenvalues --    2.08545   2.10514   2.12789   2.15094   2.15153
 Alpha virt. eigenvalues --    2.17455   2.18038   2.19469   2.20563   2.22960
 Alpha virt. eigenvalues --    2.23490   2.24464   2.24927   2.25273   2.29840
 Alpha virt. eigenvalues --    2.29944   2.30892   2.35150   2.35526   2.36520
 Alpha virt. eigenvalues --    2.43604   2.46846   2.48089   2.49050   2.55518
 Alpha virt. eigenvalues --    2.56413   2.60492   2.60544   2.61202   2.64967
 Alpha virt. eigenvalues --    2.66982   2.67382   2.68801   2.69568   2.69983
 Alpha virt. eigenvalues --    2.73531   2.76041   2.78803   2.81937   2.84623
 Alpha virt. eigenvalues --    2.85735   2.89394   2.90475   2.93685   2.97605
 Alpha virt. eigenvalues --    3.01456   3.04906   3.07621   3.11343   3.13648
 Alpha virt. eigenvalues --    3.24256   3.29071   3.37457   3.41725   3.53428
 Alpha virt. eigenvalues --    3.59524   4.20812   4.22378   4.24107   4.26445
 Alpha virt. eigenvalues --    4.27942   4.30282   4.33402   4.34188   4.35942
 Alpha virt. eigenvalues --    4.39325   4.41660   4.45668   4.46656   4.48336
 Alpha virt. eigenvalues --    4.55762   4.67437   4.73429   4.85024   4.97667
          Condensed to atoms (all electrons):
               1          2          3          4          5          6
     1  C    9.128429   0.400098  -1.596008   0.640547  -1.331143  -0.308980
     2  C    0.400098  11.111059  -0.938511  -1.472265   0.283752  -1.421283
     3  C   -1.596008  -0.938511  11.010212   0.754463  -0.321347   1.180974
     4  C    0.640547  -1.472265   0.754463   8.420314  -0.536963  -0.632300
     5  C   -1.331143   0.283752  -0.321347  -0.536963   8.026880   0.078347
     6  C   -0.308980  -1.421283   1.180974  -0.632300   0.078347   9.472423
     7  C   -0.305846  -1.062381  -0.887144   0.711794   0.158286  -0.316171
     8  C    0.184478   0.064248  -0.097460   0.911349  -0.281978  -0.399337
     9  C    0.164602  -0.331228  -0.774040  -0.301878  -0.705603  -0.331240
    10  C   -0.102169  -0.279231  -0.560489  -0.499762   0.562475  -0.703072
    11  C    0.002517  -0.079918  -0.285899   0.094611  -0.631084  -0.106237
    12  C   -0.008807   0.057288   0.096414  -0.095236  -0.056427  -0.068551
    13  C   -0.026208  -0.031665  -0.071055  -0.111760   0.008268  -0.031825
    14  C   -0.128402  -0.105531   0.085259   0.079055  -0.254566  -0.131016
    15  C   -0.418897   0.040180  -0.210342  -2.295606  -0.129336   0.213422
    16  N    0.049296  -0.000976   0.003383   0.088291  -0.023309  -0.022331
    17  N   -0.194617  -0.234239  -0.896346  -0.076732   0.010584  -0.003274
    18  O    0.033815   0.108048  -0.067834  -0.032110   0.032452  -0.010461
    19  O    0.230132   0.089288  -0.339363  -0.070737   0.033846   0.018095
    20  H    0.329648   0.024448   0.000095   0.001924   0.019352  -0.065173
    21  H   -0.017033   0.256352   0.046031   0.042278  -0.003270   0.002213
    22  H    0.065947   0.019092  -0.006561   0.019903  -0.094480   0.286889
    23  H    0.003815  -0.032584  -0.020281   0.011735   0.021456   0.010403
    24  H    0.000117  -0.000023  -0.001965  -0.002624   0.001857  -0.000168
    25  H   -0.000005   0.000008   0.000114  -0.000418   0.000276  -0.000036
    26  H   -0.000008  -0.000008  -0.000069   0.000935  -0.000116  -0.000103
    27  H    0.001179  -0.000002  -0.000789  -0.006074   0.001430   0.006364
               7          8          9         10         11         12
     1  C   -0.305846   0.184478   0.164602  -0.102169   0.002517  -0.008807
     2  C   -1.062381   0.064248  -0.331228  -0.279231  -0.079918   0.057288
     3  C   -0.887144  -0.097460  -0.774040  -0.560489  -0.285899   0.096414
     4  C    0.711794   0.911349  -0.301878  -0.499762   0.094611  -0.095236
     5  C    0.158286  -0.281978  -0.705603   0.562475  -0.631084  -0.056427
     6  C   -0.316171  -0.399337  -0.331240  -0.703072  -0.106237  -0.068551
     7  C    7.167618   0.228632   0.129886   0.254436  -0.566548  -0.180449
     8  C    0.228632   8.231397   0.023013  -0.345780   0.182586  -0.475908
     9  C    0.129886   0.023013   8.660418   1.609528  -0.437199   0.220258
    10  C    0.254436  -0.345780   1.609528   8.634186  -1.014087   0.101672
    11  C   -0.566548   0.182586  -0.437199  -1.014087   8.866580  -0.111068
    12  C   -0.180449  -0.475908   0.220258   0.101672  -0.111068   6.319005
    13  C   -0.020656  -0.076163  -0.621351   0.000527  -0.703278   0.651898
    14  C   -0.223904   0.263232  -1.008784  -0.924749   1.293929  -0.473502
    15  C    0.042397  -3.011270  -1.215712  -1.385062  -0.731036   0.160383
    16  N   -0.003049   0.147480   0.119288   0.380070   0.014252  -0.003000
    17  N    0.281809  -0.076327   0.080858   0.164390   0.005729  -0.013152
    18  O    0.021841   0.048112  -0.011677  -0.031396  -0.090376  -0.009478
    19  O   -0.061998   0.019321  -0.002050   0.007107  -0.008495  -0.000167
    20  H    0.000695   0.001000   0.000729  -0.001992   0.000048   0.000002
    21  H   -0.001354   0.000686   0.000460   0.000620  -0.000008  -0.000010
    22  H    0.000338  -0.003330  -0.000317  -0.020272  -0.000725  -0.000077
    23  H    0.388913  -0.074027   0.009771  -0.018539  -0.004491  -0.011988
    24  H    0.016503  -0.050228   0.044712   0.007804   0.288526  -0.001356
    25  H   -0.003058   0.019202   0.002487   0.001879  -0.032908   0.297809
    26  H   -0.000805   0.003781  -0.000539  -0.005550   0.018814  -0.008898
    27  H    0.003300  -0.002224  -0.050621  -0.011863  -0.018610   0.015127
              13         14         15         16         17         18
     1  C   -0.026208  -0.128402  -0.418897   0.049296  -0.194617   0.033815
     2  C   -0.031665  -0.105531   0.040180  -0.000976  -0.234239   0.108048
     3  C   -0.071055   0.085259  -0.210342   0.003383  -0.896346  -0.067834
     4  C   -0.111760   0.079055  -2.295606   0.088291  -0.076732  -0.032110
     5  C    0.008268  -0.254566  -0.129336  -0.023309   0.010584   0.032452
     6  C   -0.031825  -0.131016   0.213422  -0.022331  -0.003274  -0.010461
     7  C   -0.020656  -0.223904   0.042397  -0.003049   0.281809   0.021841
     8  C   -0.076163   0.263232  -3.011270   0.147480  -0.076327   0.048112
     9  C   -0.621351  -1.008784  -1.215712   0.119288   0.080858  -0.011677
    10  C    0.000527  -0.924749  -1.385062   0.380070   0.164390  -0.031396
    11  C   -0.703278   1.293929  -0.731036   0.014252   0.005729  -0.090376
    12  C    0.651898  -0.473502   0.160383  -0.003000  -0.013152  -0.009478
    13  C    7.235821  -0.394453   0.520938   0.003106   0.008186  -0.003260
    14  C   -0.394453   8.362518  -0.292527   0.004842   0.007700  -0.005800
    15  C    0.520938  -0.292527  15.706261  -0.716585   0.026537  -0.010001
    16  N    0.003106   0.004842  -0.716585   7.509485  -0.000163   0.000034
    17  N    0.008186   0.007700   0.026537  -0.000163   8.269328   0.048387
    18  O   -0.003260  -0.005800  -0.010001   0.000034   0.048387   8.030265
    19  O   -0.000390   0.000150   0.002279  -0.000004   0.268891  -0.061267
    20  H   -0.000009  -0.000151  -0.004214   0.000061  -0.000376   0.000039
    21  H   -0.000004  -0.000043  -0.000258   0.000002  -0.044669  -0.000864
    22  H    0.000989   0.004602   0.016856   0.004990   0.000118   0.000007
    23  H   -0.001287   0.000978  -0.002895   0.000011  -0.003342  -0.025227
    24  H    0.002572  -0.021489   0.001230   0.000000  -0.000479  -0.000501
    25  H   -0.001994   0.014542   0.000582   0.000002   0.000006   0.000002
    26  H    0.316897  -0.019205  -0.005867   0.000084   0.000000  -0.000000
    27  H    0.048165   0.262128   0.038738   0.004571   0.000001  -0.000001
              19         20         21         22         23         24
     1  C    0.230132   0.329648  -0.017033   0.065947   0.003815   0.000117
     2  C    0.089288   0.024448   0.256352   0.019092  -0.032584  -0.000023
     3  C   -0.339363   0.000095   0.046031  -0.006561  -0.020281  -0.001965
     4  C   -0.070737   0.001924   0.042278   0.019903   0.011735  -0.002624
     5  C    0.033846   0.019352  -0.003270  -0.094480   0.021456   0.001857
     6  C    0.018095  -0.065173   0.002213   0.286889   0.010403  -0.000168
     7  C   -0.061998   0.000695  -0.001354   0.000338   0.388913   0.016503
     8  C    0.019321   0.001000   0.000686  -0.003330  -0.074027  -0.050228
     9  C   -0.002050   0.000729   0.000460  -0.000317   0.009771   0.044712
    10  C    0.007107  -0.001992   0.000620  -0.020272  -0.018539   0.007804
    11  C   -0.008495   0.000048  -0.000008  -0.000725  -0.004491   0.288526
    12  C   -0.000167   0.000002  -0.000010  -0.000077  -0.011988  -0.001356
    13  C   -0.000390  -0.000009  -0.000004   0.000989  -0.001287   0.002572
    14  C    0.000150  -0.000151  -0.000043   0.004602   0.000978  -0.021489
    15  C    0.002279  -0.004214  -0.000258   0.016856  -0.002895   0.001230
    16  N   -0.000004   0.000061   0.000002   0.004990   0.000011   0.000000
    17  N    0.268891  -0.000376  -0.044669   0.000118  -0.003342  -0.000479
    18  O   -0.061267   0.000039  -0.000864   0.000007  -0.025227  -0.000501
    19  O    7.841683  -0.000036   0.016744   0.000000  -0.000310  -0.000000
    20  H   -0.000036   0.491184  -0.003052  -0.002859   0.000000  -0.000000
    21  H    0.016744  -0.003052   0.453218  -0.000127  -0.000007  -0.000000
    22  H    0.000000  -0.002859  -0.000127   0.474953   0.000001  -0.000000
    23  H   -0.000310   0.000000  -0.000007   0.000001   0.439801   0.003891
    24  H   -0.000000  -0.000000  -0.000000  -0.000000   0.003891   0.512095
    25  H    0.000000   0.000000  -0.000000  -0.000000  -0.000012  -0.003844
    26  H   -0.000000  -0.000000   0.000000   0.000000   0.000000  -0.000150
    27  H    0.000000   0.000000  -0.000000  -0.000001   0.000001   0.000015
              25         26         27
     1  C   -0.000005  -0.000008   0.001179
     2  C    0.000008  -0.000008  -0.000002
     3  C    0.000114  -0.000069  -0.000789
     4  C   -0.000418   0.000935  -0.006074
     5  C    0.000276  -0.000116   0.001430
     6  C   -0.000036  -0.000103   0.006364
     7  C   -0.003058  -0.000805   0.003300
     8  C    0.019202   0.003781  -0.002224
     9  C    0.002487  -0.000539  -0.050621
    10  C    0.001879  -0.005550  -0.011863
    11  C   -0.032908   0.018814  -0.018610
    12  C    0.297809  -0.008898   0.015127
    13  C   -0.001994   0.316897   0.048165
    14  C    0.014542  -0.019205   0.262128
    15  C    0.000582  -0.005867   0.038738
    16  N    0.000002   0.000084   0.004571
    17  N    0.000006   0.000000   0.000001
    18  O    0.000002  -0.000000  -0.000001
    19  O    0.000000  -0.000000   0.000000
    20  H    0.000000  -0.000000   0.000000
    21  H   -0.000000   0.000000  -0.000000
    22  H   -0.000000   0.000000  -0.000001
    23  H   -0.000012   0.000000   0.000001
    24  H   -0.003844  -0.000150   0.000015
    25  H    0.514355  -0.003830  -0.000149
    26  H   -0.003830   0.511696  -0.003614
    27  H   -0.000149  -0.003614   0.494555
 Mulliken charges:
               1
     1  C   -0.796496
     2  C   -0.464016
     3  C   -0.101440
     4  C    0.357266
     5  C    1.130363
     6  C   -0.717569
     7  C    0.226915
     8  C    0.565516
     9  C    0.726232
    10  C    0.179321
    11  C    0.054377
    12  C   -0.401785
    13  C   -0.702012
    14  C   -0.394814
    15  C   -0.340195
    16  N   -0.559832
    17  N   -0.628805
    18  O    0.037250
    19  O    0.017281
    20  H    0.208638
    21  H    0.252096
    22  H    0.234064
    23  H    0.304214
    24  H    0.203505
    25  H    0.194992
    26  H    0.196555
    27  H    0.218376
 Sum of Mulliken charges =  -0.00000
 Mulliken charges with hydrogens summed into heavy atoms:
               1
     1  C   -0.587858
     2  C   -0.211919
     3  C   -0.101440
     4  C    0.357266
     5  C    1.130363
     6  C   -0.483505
     7  C    0.531130
     8  C    0.565516
     9  C    0.726232
    10  C    0.179321
    11  C    0.257882
    12  C   -0.206794
    13  C   -0.505457
    14  C   -0.176437
    15  C   -0.340195
    16  N   -0.559832
    17  N   -0.628805
    18  O    0.037250
    19  O    0.017281
 Electronic spatial extent (au):  <R**2>=           4648.6804
 Charge=              0.0000 electrons
 Dipole moment (field-independent basis, Debye):
    X=             -2.2170    Y=              0.8665    Z=              0.0003  Tot=              2.3803
 Quadrupole moment (field-independent basis, Debye-Ang):
   XX=           -110.0246   YY=           -118.1752   ZZ=           -110.5765
   XY=             31.1881   XZ=             -0.0007   YZ=              0.0017
 Traceless Quadrupole moment (field-independent basis, Debye-Ang):
   XX=              2.9008   YY=             -5.2498   ZZ=              2.3490
   XY=             31.1881   XZ=             -0.0007   YZ=              0.0017
 Octapole moment (field-independent basis, Debye-Ang**2):
  XXX=            -71.8359  YYY=            -58.5123  ZZZ=             -0.0008  XYY=             22.5004
  XXY=             20.6959  XXZ=              0.0046  XZZ=             17.4431  YZZ=             -5.0207
  YYZ=              0.0060  XYZ=             -0.0001
 Hexadecapole moment (field-independent basis, Debye-Ang**3):
 XXXX=          -4002.0484 YYYY=          -2327.7163 ZZZZ=           -122.9814 XXXY=            343.8203
 XXXZ=             -0.0154 YYYX=            306.3333 YYYZ=              0.0235 ZZZX=              0.0004
 ZZZY=              0.0003 XXYY=          -1127.8032 XXZZ=           -736.0377 YYZZ=           -398.0381
 XXYZ=              0.0108 YYXZ=             -0.0023 ZZXY=            -30.8139
 N-N= 1.295072270459D+03 E-N=-4.532811452131D+03  KE= 8.295077304851D+02
 No NMR shielding tensors so no spin-rotation constants.
 Leave Link  601 at Fri Jun  4 12:57:42 2021, MaxMem= 14680064000 cpu:               0.9 elap:               0.1
 (Enter /share/apps/gaussian/g16/l607.exe)
 ******************************Gaussian NBO Version 3.1******************************
             N A T U R A L   A T O M I C   O R B I T A L   A N D
          N A T U R A L   B O N D   O R B I T A L   A N A L Y S I S
 ******************************Gaussian NBO Version 3.1******************************
       /RESON  / : Allow strongly delocalized NBO set

 Analyzing the SCF density

 Job title: 2M131                                                           

 Storage needed:    428978 in NPA (********** available)
 GSVD:  LWork=       82969 too small for GESVD, short by       33821 words or       33821 for optimal perf.
 Remove ICRem=  119 ICRemI=  118 L=0 PNAO number  119 atom    7 type  51 NPNAO=  377
   due to symmetric orthogonalization 2, value= 0.00D+00.
 GSVD:  LWork=       83655 too small for GESVD, short by       31772 words or       31772 for optimal perf.
 Remove ICRem=  156 ICRemI=  155 L=0 PNAO number  156 atom    9 type  51 NPNAO=  376
   due to symmetric orthogonalization 2, value= 0.00D+00.
 GSVD:  LWork=       84337 too small for GESVD, short by       29735 words or       29735 for optimal perf.
 Remove ICRem=   81 ICRemI=   80 L=0 PNAO number   81 atom    5 type  51 NPNAO=  375
   due to symmetric orthogonalization 2, value= 0.00D+00.
 GSVD:  LWork=       85015 too small for GESVD, short by       27710 words or       27710 for optimal perf.
 Remove ICRem=  173 ICRemI=   98 L=0 PNAO number  173 atom   10 type  51 NPNAO=  374
   due to symmetric orthogonalization 2, value= 0.00D+00.
 GSVD:  LWork=       85689 too small for GESVD, short by       25697 words or       25697 for optimal perf.
 Remove ICRem=   43 ICRemI=   42 L=0 PNAO number   43 atom    3 type  51 NPNAO=  373
   due to symmetric orthogonalization 2, value= 0.00D+00.
 GSVD:  LWork=       86359 too small for GESVD, short by       23696 words or       23696 for optimal perf.
 Remove ICRem=   61 ICRemI=   60 L=0 PNAO number   61 atom    4 type  51 NPNAO=  372
   due to symmetric orthogonalization 2, value= 0.00D+00.
 GSVD:  LWork=       87025 too small for GESVD, short by       21707 words or       21707 for optimal perf.

 Computed number of electrons  127.99993471 does not match expected value of   128.


 NATURAL POPULATIONS:  Natural atomic orbital occupancies 
                                                          
   NAO  Atom  No  lang   Type(AO)    Occupancy      Energy
 ----------------------------------------------------------
     1    C    1  S      Cor( 1S)     1.99914     -10.09969
     2    C    1  S      Val( 2S)     0.97445      -0.23693
     3    C    1  S      Ryd( 4S)     0.00105       1.07187
     4    C    1  S      Ryd( 3S)     0.00030       0.64614
     5    C    1  S      Ryd( 5S)     0.00005       4.11355
     6    C    1  px     Val( 2p)     1.10488      -0.09685
     7    C    1  px     Ryd( 4p)     0.00501       0.74796
     8    C    1  px     Ryd( 3p)     0.00026       0.33231
     9    C    1  py     Val( 2p)     1.16340      -0.10743
    10    C    1  py     Ryd( 4p)     0.00503       0.95028
    11    C    1  py     Ryd( 3p)     0.00024       0.34346
    12    C    1  pz     Val( 2p)     0.99445      -0.15655
    13    C    1  pz     Ryd( 4p)     0.00108       0.54790
    14    C    1  pz     Ryd( 3p)     0.00054       0.25064
    15    C    1  dxy    Ryd( 3d)     0.00083       2.32986
    16    C    1  dxz    Ryd( 3d)     0.00040       1.85027
    17    C    1  dyz    Ryd( 3d)     0.00043       1.79666
    18    C    1  dx2y2  Ryd( 3d)     0.00074       2.36008
    19    C    1  dz2    Ryd( 3d)     0.00049       2.25016
 
    20    C    2  S      Cor( 1S)     1.99913     -10.10644
    21    C    2  S      Val( 2S)     0.97791      -0.23208
    22    C    2  S      Ryd( 4S)     0.00098       1.03399
    23    C    2  S      Ryd( 3S)     0.00031       0.81640
    24    C    2  S      Ryd( 5S)     0.00010       4.04928
    25    C    2  px     Val( 2p)     1.22156      -0.11715
    26    C    2  px     Ryd( 4p)     0.00475       1.07018
    27    C    2  px     Ryd( 3p)     0.00041       0.35200
    28    C    2  py     Val( 2p)     1.03433      -0.07988
    29    C    2  py     Ryd( 4p)     0.00545       0.68849
    30    C    2  py     Ryd( 3p)     0.00028       0.48035
    31    C    2  pz     Val( 2p)     0.87227      -0.15520
    32    C    2  pz     Ryd( 4p)     0.00110       0.52993
    33    C    2  pz     Ryd( 3p)     0.00058       0.27878
    34    C    2  dxy    Ryd( 3d)     0.00058       2.40194
    35    C    2  dxz    Ryd( 3d)     0.00043       1.76321
    36    C    2  dyz    Ryd( 3d)     0.00057       1.89855
    37    C    2  dx2y2  Ryd( 3d)     0.00081       2.39108
    38    C    2  dz2    Ryd( 3d)     0.00039       2.26717
 
    39    C    3  S      Cor( 1S)     1.99862     -10.10204
    40    C    3  S      Val( 2S)     0.79354      -0.08687
    41    C    3  S      Ryd( 3S)     0.00088       1.26547
    42    C    3  S      Ryd( 4S)     0.00019       3.61096
    43    C    3  px     Val( 2p)     1.08070      -0.08973
    44    C    3  px     Ryd( 4p)     0.00613       1.14953
    45    C    3  px     Ryd( 3p)     0.00033       0.40224
    46    C    3  py     Val( 2p)     0.96417      -0.08465
    47    C    3  py     Ryd( 4p)     0.00563       0.89201
    48    C    3  py     Ryd( 3p)     0.00027       0.45152
    49    C    3  pz     Val( 2p)     1.04595      -0.16120
    50    C    3  pz     Ryd( 4p)     0.00122       0.65417
    51    C    3  pz     Ryd( 3p)     0.00045       0.24711
    52    C    3  dxy    Ryd( 3d)     0.00092       2.68162
    53    C    3  dxz    Ryd( 3d)     0.00079       1.94832
    54    C    3  dyz    Ryd( 3d)     0.00081       2.10561
    55    C    3  dx2y2  Ryd( 3d)     0.00082       2.70269
    56    C    3  dz2    Ryd( 3d)     0.00155       2.35454
 
    57    C    4  S      Cor( 1S)     1.99876     -10.08251
    58    C    4  S      Val( 2S)     0.83936      -0.10483
    59    C    4  S      Ryd( 3S)     0.00048       2.14973
    60    C    4  S      Ryd( 4S)     0.00019       3.28290
    61    C    4  px     Val( 2p)     1.07600      -0.08442
    62    C    4  px     Ryd( 4p)     0.00454       1.16214
    63    C    4  px     Ryd( 3p)     0.00035       0.78673
    64    C    4  py     Val( 2p)     1.10939      -0.09410
    65    C    4  py     Ryd( 4p)     0.00580       1.17636
    66    C    4  py     Ryd( 3p)     0.00034       0.86529
    67    C    4  pz     Val( 2p)     1.02773      -0.14624
    68    C    4  pz     Ryd( 4p)     0.00086       0.67328
    69    C    4  pz     Ryd( 3p)     0.00057       0.38826
    70    C    4  dxy    Ryd( 3d)     0.00042       2.52713
    71    C    4  dxz    Ryd( 3d)     0.00053       1.89937
    72    C    4  dyz    Ryd( 3d)     0.00047       1.88993
    73    C    4  dx2y2  Ryd( 3d)     0.00062       2.52144
    74    C    4  dz2    Ryd( 3d)     0.00134       2.28555
 
    75    C    5  S      Cor( 1S)     1.99874     -10.09234
    76    C    5  S      Val( 2S)     0.83708      -0.11067
    77    C    5  S      Ryd( 3S)     0.00054       2.35995
[...]
 0.00003886,-0.00003449,0.00151022,0.00017903,0.00001016,-0.00010034,-0
 .00071350,0.00024717,-0.00023802,-0.00003998,0.00010381,-0.14847639,0.
 16607700,-0.04147281,0.04848832,-0.06052076,-0.01657994,0.01328101,-0.
 00163022,0.00279149,0.00394929,0.00038760,0.00052289,-0.00003948,-0.00
 049165,0.00436364,0.00442803,0.00342123,0.01164758,-0.00960546,0.00729
 211,-0.00037183,-0.00028859,-0.00025766,0.00013563,0.00014044,0.000004
 52,0.00005241,-0.00041775,-0.00059939,0.00016672,-0.00044079,0.0005783
 7,-0.00005165,0.00004386,0.00004301,0.00003188,0.00003077,-0.00004955,
 0.00005740,-0.00001389,0.00006355,-0.00006603,-0.00010403,-0.00001696,
 0.00007733,0.00014835,0.00023336,-0.00005412,0.00000424,-0.00005763,-0
 .00104548,0.00069767,0.00076244,-0.00008511,0.00029999,-0.00067123,0.0
 0017646,-0.00001396,-0.00008606,0.04155451,-0.05630908,0.05516793,0.00
 305659,0.00092536,0.00021512,-0.29287228,-0.02164352,0.11687412,-0.016
 88278,-0.00170397,0.01073486,-0.00024666,0.00396462,-0.00060369,0.0002
 9493,0.00005778,-0.00041877,0.00147890,0.00092177,0.00068752,-0.000400
 11,-0.00034702,0.00084136,-0.00023005,0.00010540,-0.00038676,0.0000206
 6,0.00004417,0.00000358,0.00002788,-0.00014270,-0.00005308,-0.00006459
 ,-0.00007818,0.00002748,-0.00002725,0.00005238,-0.00000021,0.00000931,
 0.00001333,-0.00001992,0.00003841,-0.00000440,0.00002844,-0.00001337,0
 .00000105,0.00000806,0.00000635,-0.00000651,-0.00000310,-0.00483086,-0
 .00125790,0.00056993,0.00094971,-0.00025316,0.00003023,0.00306222,-0.0
 0316825,0.00152852,0.00039656,-0.00078772,-0.00064571,0.30622841,-0.02
 069597,0.00263318,0.01052236,-0.02361335,-0.05389974,0.01951752,0.0184
 0052,0.00795392,-0.00819928,0.00329375,-0.00081431,0.00462869,0.000419
 06,-0.00077200,-0.00006313,0.00082249,-0.00142792,0.00503738,0.0005455
 3,0.00099226,-0.00019750,0.00025618,-0.00056752,-0.00044814,0.00015961
 ,-0.00014837,0.00015743,-0.00035931,-0.00005188,-0.00014479,-0.0000990
 5,0.00006741,-0.00014429,0.00011189,0.00007415,-0.00003872,0.00004666,
 -0.00009357,0.00004699,-0.00007507,0.00005596,0.00006676,0.00003108,-0
 .00003367,0.00002281,-0.00004496,0.00004187,-0.00002875,0.00168358,-0.
 00215451,-0.00380124,-0.00136388,0.00115363,0.00000501,-0.00148556,-0.
 00330660,0.00359300,-0.00042591,-0.00056414,-0.00171897,0.02319224,0.0
 5085247,0.01788738,0.00199421,-0.00316587,0.11848449,0.01874030,-0.103
 46839,-0.00569769,-0.00026898,0.00926922,-0.00005538,0.00436406,0.0028
 9307,-0.00071406,0.00007936,-0.00043023,0.00076864,0.00499823,0.000743
 54,0.00011184,0.00015455,0.00084344,-0.00051000,-0.00038866,-0.0004733
 3,-0.00009077,0.00020296,-0.00000882,0.00012396,-0.00023023,-0.0002631
 4,0.00004454,-0.00015253,-0.00004983,-0.00004884,-0.00001525,0.0001125
 0,-0.00004716,0.00006014,-0.00004412,0.00008621,0.00003888,0.00003562,
 -0.00001648,0.00003465,-0.00001259,0.00002833,-0.00004391,0.00000972,-
 0.00183446,-0.00264127,-0.00311023,0.00093794,-0.00043287,0.00048559,0
 .00015328,0.00425658,-0.00316746,-0.00094141,-0.00157626,-0.00121308,-
 0.12928039,-0.02902923,0.10124880,0.00057468,-0.02167443,0.01993125,-0
 .00406684,0.00146182,0.00380649,-0.00093724,0.00058384,-0.00006832,-0.
 00328599,0.00241362,0.00100900,0.00754395,0.01806367,-0.01593458,-0.06
 424357,-0.02680615,0.03119201,0.00043683,0.00093612,-0.00097559,0.0001
 6397,-0.00001806,-0.00010756,-0.00003608,-0.00025397,0.00011719,-0.000
 09013,0.00027872,-0.00111827,-0.00004456,-0.00002845,0.00004713,-0.000
 03373,0.00003265,-0.00002229,0.00000899,0.00001793,-0.00001956,0.00007
 437,0.00004598,0.00000058,-0.00240786,0.00126010,0.00011428,-0.0005074
 7,-0.00078706,0.00073935,-0.00045325,-0.00028849,-0.00024938,0.0001588
 3,-0.00007949,0.00004551,0.00028365,-0.00013580,0.00009573,0.00019044,
 -0.00092480,-0.00129160,0.00002396,-0.00100474,0.00063579,0.06699214,0
 .00125021,0.00346193,0.00173803,0.00122662,0.00395193,0.00332583,0.000
 55589,0.00044721,-0.00050354,0.00337419,0.00110705,0.00125728,-0.00303
 721,-0.01011901,0.01321009,-0.02661982,-0.20742322,0.14676228,-0.00053
 989,-0.00066849,0.00068031,-0.00005318,0.00001792,-0.00011312,0.000226
 74,-0.00017811,-0.00016068,-0.00133403,-0.00077286,-0.00076099,0.00000
 697,0.00004750,-0.00002852,0.00005145,-0.00001907,-0.00002316,0.000017
 26,-0.00005553,0.00003577,-0.00010948,0.00007166,0.00012448,0.00025046
 ,0.00005493,0.00025931,-0.00078406,0.00026305,-0.00012150,-0.00038163,
 -0.00086394,-0.00051919,-0.00007801,0.00012914,0.00001469,0.00006239,0
 .00009074,0.00010144,-0.00116319,-0.00129263,-0.00257182,0.00005003,-0
 .00015562,-0.00025723,0.02666451,0.21188348,0.00119379,0.01078036,-0.0
 0309058,0.00399877,0.00323298,0.00439315,-0.00004544,-0.00051451,0.000
 53788,0.00022380,0.00163615,0.00284799,0.00131231,0.00488721,0.0000651
 2,0.03103968,0.14683576,-0.17297122,0.00023085,0.00009813,-0.00026796,
 -0.00007885,-0.00012698,-0.00001126,-0.00027572,0.00002894,-0.00018017
 ,0.00019992,-0.00139712,-0.00128459,0.00001818,-0.00001455,0.00002069,
 -0.00003765,-0.00001575,0.00000514,-0.00001901,0.00003550,-0.00002496,
 0.00012765,0.00006316,0.00006916,0.00093950,-0.00013893,0.00023603,0.0
 0073690,-0.00012032,-0.00045629,-0.00017328,-0.00055599,-0.00116053,0.
 00004426,0.00001529,0.00007951,-0.00006623,0.00017960,0.00012429,-0.00
 109676,-0.00266586,-0.00238893,-0.00022633,0.00015882,-0.00048672,-0.0
 3802298,-0.16257405,0.17372617,-0.00042262,-0.00038865,0.00034555,-0.0
 0048535,0.00037889,-0.00023914,0.00060703,-0.00200734,0.00017888,0.008
 04802,0.01968431,-0.01725271,-0.00377324,0.00347652,0.00101129,0.00109
 881,0.00074192,-0.00105049,-0.05706511,-0.01958744,0.02247613,-0.00024
 279,-0.01984330,0.01865339,-0.00341981,0.00134726,0.00278829,-0.000885
 05,0.00040151,-0.00018389,-0.00014971,-0.00225229,0.00021895,0.0003866
 8,0.00031082,-0.00043054,0.00014355,-0.00029481,0.00013270,0.00002691,
 -0.00098385,0.00068783,-0.00004062,-0.00040671,-0.00020734,0.00002239,
 0.00014517,-0.00002429,-0.00658069,0.00656750,-0.00289139,-0.00227129,
 -0.00584116,0.00562934,0.00246876,-0.00143010,0.00040423,-0.00003707,-
 0.00003937,0.00007263,-0.00001673,0.00017882,-0.00000768,-0.00032886,0
 .00033599,-0.00002076,0.06407875,-0.00003032,-0.00009638,-0.00019694,-
 0.00010066,-0.00029025,0.00002659,-0.00099232,-0.00104628,-0.00128660,
 -0.00197890,-0.00917803,0.01244908,0.00400232,0.00166573,0.00195947,-0
 .00058130,-0.00051979,0.00063204,-0.01631530,-0.22209668,0.15472425,0.
 00021182,0.00297620,0.00232998,0.00151178,0.00301147,0.00220681,0.0000
 1560,0.00022380,-0.00061349,0.00041719,-0.00071903,-0.00306022,-0.0000
 9402,-0.00006835,0.00004328,-0.00006671,0.00001459,-0.00009263,0.00009
 335,-0.00006935,-0.00019918,-0.00033007,-0.00069802,-0.00045098,0.0000
 5249,0.00017927,0.00004661,0.00085727,-0.00013588,-0.00047275,-0.00552
 308,-0.00149353,0.00331374,0.00012848,0.00024188,0.00018463,0.00002842
 ,0.00002843,0.00001905,0.00006712,0.00016826,0.00010926,0.00026718,-0.
 00000623,0.00015699,0.01837009,0.22731913,0.00005266,-0.00005559,-0.00
 032729,0.00015291,-0.00016257,-0.00023373,-0.00065080,-0.00088612,-0.0
 0211821,0.00045373,0.00390421,0.00172770,0.00058149,0.00216682,0.00399
 409,0.00003104,0.00011011,-0.00012926,0.01980157,0.15601523,-0.1760007
 7,0.00226129,0.01024037,-0.00333290,0.00265375,0.00227168,0.00353739,0
 .00013155,-0.00076569,0.00005470,-0.00196292,-0.00200725,-0.00184682,-
 0.00009965,-0.00011641,0.00007368,-0.00005374,-0.00000265,-0.00010755,
 -0.00019262,0.00022569,-0.00037648,-0.00026997,-0.00042075,-0.00095866
 ,0.00005146,0.00001006,0.00023311,0.00177649,-0.00272534,0.00122639,0.
 00536915,0.00343912,-0.00503415,-0.00086993,0.00079952,0.00021943,0.00
 001721,0.00004579,0.00002124,0.00008361,0.00006520,0.00024806,0.000035
 49,0.00012984,0.00019464,-0.03020507,-0.17214831,0.17818785,-0.0000560
 6,0.00001233,0.00000793,0.00001079,0.00005120,-0.00004051,-0.00002249,
 -0.00004240,0.00009779,0.00023101,-0.00048351,0.00026682,0.00020043,0.
 00001193,-0.00016073,-0.00000215,-0.00004103,0.00004261,0.00057435,0.0
 0073053,-0.00193683,0.00614872,0.01804278,-0.01596723,-0.00344375,0.00
 283494,0.00076396,0.00046914,0.00081798,-0.00068890,-0.06304480,-0.025
 46007,0.03126031,0.00061347,-0.02219130,0.01974108,-0.00414696,0.00194
 592,0.00340526,-0.00064469,0.00016266,-0.00012524,-0.00033649,0.000341
 07,-0.00001087,0.00008660,-0.00001045,-0.00006867,-0.00021023,0.000262
 78,-0.00012675,0.00022217,-0.00013771,-0.00000345,0.00011401,-0.000051
 40,-0.00000465,-0.00000016,-0.00000546,0.00000526,-0.00000151,-0.00000
 152,-0.00000363,0.00000833,-0.00000606,0.00000831,-0.00090854,-0.00014
 470,0.00063050,0.06397435,0.00014066,0.00003700,-0.00009423,0.00006656
 ,-0.00014855,0.00010676,-0.00005416,0.00013549,0.00002305,0.00012967,0
 .00018901,-0.00028284,-0.00002910,-0.00002348,-0.00011837,-0.00008999,
 0.00011758,-0.00004356,-0.00194773,-0.00060511,-0.00104388,-0.00368555
 ,-0.01100031,0.01294254,0.00403106,0.00083151,0.00130022,-0.00063774,-
 0.00018977,0.00074799,-0.02545046,-0.20364547,0.14661414,0.00114557,0.
 00199361,0.00174177,0.00093999,0.00410565,0.00323610,0.00014860,-0.000
 02361,-0.00055027,0.00031156,-0.00011650,0.00025245,-0.00007205,-0.000
 05252,-0.00001788,0.00011558,-0.00029371,0.00020510,-0.00016213,0.0001
 2822,-0.00009967,-0.00002933,0.00006591,-0.00004580,0.00000630,0.00000
 414,-0.00000435,-0.00000031,-0.00001166,-0.00000169,-0.00001386,0.0000
 1080,0.00001041,0.00096616,0.00034956,-0.00034797,0.02562900,0.2099995
 7,-0.00009696,-0.00004361,0.00006349,-0.00005307,0.00011282,-0.0000571
 0,0.00010739,0.00001842,0.00008014,-0.00023437,-0.00004097,0.00003149,
 -0.00012720,-0.00013456,-0.00002220,0.00008263,-0.00006287,0.00003965,
 0.00025225,-0.00210029,-0.00120502,0.00179244,0.00437204,-0.00122466,-
 0.00021369,0.00177202,0.00300354,0.00050093,0.00017380,0.00007797,0.03
 125246,0.14661794,-0.16871574,0.00066665,0.01094674,-0.00453284,0.0042
 2746,0.00283933,0.00453032,-0.00011374,-0.00055582,-0.00012597,0.00001
 325,0.00024081,0.00014066,-0.00001833,-0.00004218,-0.00006746,-0.00000
 642,0.00014702,-0.00010465,0.00001651,-0.00010929,0.00001087,-0.000022
 70,-0.00003709,0.00003499,-0.00000435,0.00000029,0.00000334,-0.0000046
 3,-0.00000121,-0.00001106,0.00001469,0.00000733,0.00000506,-0.00027746
 ,0.00009020,0.00042581,-0.03638090,-0.16144304,0.17115355,-0.00006023,
 -0.00007041,0.00007261,-0.00010781,0.00007949,0.00000642,0.00007254,0.
 00007253,-0.00009554,-0.00059108,-0.00018106,-0.00000870,-0.00011250,-
 0.00005779,0.00014888,0.00010199,-0.00002828,0.00000788,-0.00026711,0.
 00101044,-0.00063462,-0.00216902,-0.00067013,0.00504908,-0.00020736,-0
 .00042794,0.00032203,0.00017237,-0.00013056,-0.00025571,-0.01683688,0.
 01896236,-0.00716436,-0.21873624,0.13578937,-0.03958354,0.00749146,-0.
 00460271,0.00197493,0.00116324,-0.00058616,0.00179792,-0.00001791,-0.0
 0004395,0.00004699,0.00001969,0.00004631,-0.00004906,0.00005922,0.0000
 8559,-0.00009845,-0.00003611,-0.00005766,0.00005577,-0.00006047,-0.000
 03832,0.00005094,-0.00000796,0.00000011,-0.00000192,-0.00000578,0.0000
 2144,-0.00000222,-0.00000003,0.00000680,-0.00000261,0.00006025,0.00005
 898,0.00003947,0.00017748,-0.00130028,-0.00105310,0.22924498,-0.000013
 63,-0.00002005,0.00000375,0.00002081,0.00004837,0.00001207,0.00000950,
 0.00001582,-0.00003253,-0.00027374,-0.00030911,-0.00044717,-0.00005877
 ,0.00000621,0.00013679,0.00004741,0.00002439,0.00001316,-0.00002238,0.
 00025099,-0.00001830,0.00007113,0.00388572,0.00435073,-0.00083834,0.00
 001841,0.00008865,0.00002516,-0.00027457,-0.00039564,-0.00427946,0.006
 77434,-0.00033995,0.13622566,-0.16041048,0.04655714,0.01853610,-0.0099
 5129,0.00324230,-0.00130589,-0.00083810,0.00488371,-0.00002605,-0.0000
 0062,0.00001906,0.00004948,-0.00001481,-0.00001454,-0.00002560,-0.0000
 6032,0.00004877,-0.00000140,0.00001605,-0.00002417,0.00003760,0.000014
 63,-0.00003556,0.00000160,-0.00000640,-0.00000570,0.00000286,0.0000127
 2,0.00001548,-0.00000702,0.00000645,0.00000358,0.00006129,0.00009894,0
 .00012590,-0.00090846,-0.00134539,-0.00278146,-0.14742450,0.16301062,0
 .00002620,0.00002614,-0.00005375,0.00005438,-0.00001108,0.00006079,-0.
 00004402,-0.00005739,0.00004487,0.00006706,-0.00048372,-0.00061938,0.0
 0014969,0.00013640,-0.00002533,-0.00005399,0.00004301,0.00004951,0.000
 20956,-0.00042569,0.00048308,0.00444322,0.00464311,0.00369538,0.000657
 48,-0.00007322,-0.00047718,-0.00038300,-0.00033422,-0.00032224,0.01183
 236,-0.00950743,0.00739700,-0.03994013,0.04672923,-0.06014964,-0.01693
 759,0.01236914,-0.00046834,0.00238618,0.00459982,-0.00019412,0.0000323
 5,0.00002613,-0.00002398,-0.00005165,-0.00001329,0.00002252,-0.0000075
 7,0.00000491,-0.00001404,0.00000978,-0.00000198,-0.00001644,-0.0000111
 2,-0.00000562,-0.00000175,-0.00000314,-0.00000511,-0.00000719,0.000012
 97,0.00000815,0.00002127,0.00000868,-0.00000187,0.00000555,0.00003759,
 0.00012681,0.00016408,-0.00137336,-0.00262691,-0.00249800,0.04011602,-
 0.05427884,0.05399950,-0.00009707,0.00001494,0.00005918,-0.00003440,0.
 00008145,-0.00005629,0.00005832,-0.00003857,0.00003463,0.00004238,0.00
 006576,0.00001963,-0.00036435,0.00015806,-0.00036953,0.00000917,-0.000
 12787,0.00005485,0.00001924,-0.00020299,-0.00014512,0.00022499,0.00021
 309,-0.00043664,-0.00054366,0.00485173,-0.00011936,-0.00050678,-0.0006
 4610,0.00081460,0.00177016,0.00027169,0.00089399,0.00065428,0.00112571
 ,0.00018177,-0.28149827,-0.02336763,0.11493465,-0.01662939,-0.00375100
 ,0.01145931,0.00003143,0.00001533,0.00013535,0.00003982,0.00003190,-0.
 00007421,0.00008286,0.00007584,-0.00009733,-0.00002300,-0.00003028,0.0
 0003139,-0.00008171,-0.00002304,0.00005215,-0.00001410,0.00000374,0.00
 001270,-0.00000209,-0.00000181,-0.00000631,0.00000084,0.00000295,-0.00
 000678,0.00000609,0.00000896,0.00000649,-0.00008409,0.00013100,-0.0000
 5075,0.00042177,-0.00083982,-0.00043536,0.29627847,0.00008867,0.000049
 80,-0.00000709,0.00002455,-0.00008215,0.00005067,-0.00007330,0.0000574
 4,0.00003605,0.00013175,-0.00005692,0.00018124,0.00011692,-0.00055025,
 -0.00039220,-0.00002708,0.00004141,-0.00011860,-0.00043535,-0.00011182
 ,-0.00036567,0.00060427,-0.00073562,0.00000291,0.00434944,0.00065543,0
 .00527439,0.00047362,0.00069235,-0.00057323,0.00095085,-0.00187560,0.0
 0491748,-0.02188871,0.00181171,0.00997103,-0.02396615,-0.05552201,0.02
 333933,0.01923174,0.00652744,-0.00912027,0.00006367,0.00018289,0.00015
 753,-0.00006152,-0.00004302,-0.00000776,0.00002690,-0.00002986,0.00000
 829,-0.00001769,0.00001874,-0.00001339,-0.00001885,0.00000938,0.000002
 01,0.00001566,0.00001152,0.00000555,-0.00000464,-0.00000884,-0.0000088
 0,-0.00000421,-0.00000342,-0.00000390,0.00007082,0.00002781,-0.0000170
 7,-0.00109831,-0.00003848,0.00051266,-0.00026428,-0.00045676,-0.001502
 24,0.02281587,0.05087288,-0.00000109,0.00002200,0.00006637,-0.00000978
 ,0.00002822,-0.00002753,0.00006301,0.00002235,0.00002305,-0.00003431,0
 .00020727,0.00007253,-0.00033590,-0.00040843,-0.00050735,-0.00002754,-
 0.00007884,-0.00004145,0.00004480,-0.00045732,-0.00041318,-0.00075638,
 0.00015721,-0.00027059,0.00029118,0.00507627,0.00494347,-0.00010061,-0
 .00013157,0.00036680,0.00033887,0.00518536,0.00022770,0.01899263,0.000
 89324,-0.00477372,0.11542385,0.02310325,-0.10294396,-0.00732566,-0.000
 05498,0.00758447,0.00009585,0.00017659,0.00022420,0.00000215,-0.000044
 61,-0.00004659,-0.00005733,-0.00001102,0.00002488,0.00002110,-0.000008
 42,-0.00000762,0.00004872,0.00000366,-0.00001947,0.00000297,0.00001025
 ,0.00001632,-0.00000400,-0.00000992,-0.00001217,-0.00000093,-0.0000067
 3,-0.00000436,-0.00004408,0.00000734,0.00005250,0.00095403,0.00002777,
 -0.00034029,-0.00090577,-0.00127522,-0.00102265,-0.12540277,-0.0296314
 4,0.09931344,0.00001817,-0.00001641,0.00001066,-0.00005162,-0.00003135
 ,0.00004236,0.00004405,0.00011850,-0.00011174,-0.00001108,0.00005746,-
 0.00009941,-0.00013924,0.00006190,-0.00010759,0.00006720,-0.00004041,0
 .00006125,0.00054177,-0.00137531,0.00100187,-0.00450470,0.00190812,0.0
 0197306,-0.00021290,-0.02142382,0.01890451,0.00043897,-0.00115047,-0.0
 0010996,-0.00076577,0.00009350,-0.00000491,-0.00285274,0.00390615,0.00
 127619,0.00771855,0.01912017,-0.01686905,-0.06389010,-0.02706807,0.032
 71921,-0.00208850,0.00040309,0.00060350,0.00027232,0.00051883,-0.00061
 792,0.00006799,-0.00014342,0.00008846,-0.00014779,0.00004080,0.0000121
 5,-0.00001305,0.00002991,-0.00001306,-0.00000305,0.00000055,-0.0000023
 3,0.00000018,0.00000829,-0.00000590,-0.00002535,0.00002411,-0.00000152
 ,-0.00031977,0.00006632,0.00017482,0.00007107,-0.00028902,-0.00026901,
 0.00023149,0.00093644,-0.00080260,0.00023910,-0.00110463,-0.00127304,0
 .06531478,-0.00005792,-0.00003452,0.00006022,-0.00004447,0.00005945,-0
 .00003857,0.00005835,-0.00001103,-0.00000885,-0.00011977,0.00007318,-0
 .00013030,-0.00035376,-0.00012348,0.00000855,0.00012821,-0.00000806,0.
 00006943,0.00035162,-0.00003947,0.00008307,0.00065568,0.00246916,0.001
 36164,-0.00018224,0.00155306,0.00151653,0.00020098,-0.00073845,-0.0012
 9332,0.00012742,0.00006081,-0.00057769,0.00470894,0.00220488,0.0032691
 2,-0.00396849,-0.00987203,0.01337110,-0.02707990,-0.20459108,0.1476384
 9,0.00102241,-0.00018339,-0.00002713,0.00054497,-0.00042775,-0.0000444
 7,0.00002938,0.00002068,-0.00003254,-0.00002493,-0.00002186,0.00000119
 ,-0.00002789,-0.00000452,0.00002763,-0.00000676,-0.00000126,-0.0000027
 0,0.00000015,0.00000450,-0.00000176,0.00000039,0.00001433,0.00000509,0
 .00003793,0.00011271,0.00010615,-0.00026074,-0.00047349,-0.00049901,-0
 .00024941,-0.00049578,0.00061573,-0.00083890,-0.00144405,-0.00280228,0
 .02534876,0.21189745,0.00004459,0.00004384,-0.00004222,0.00005308,-0.0
 0004374,0.00000563,-0.00006258,-0.00003257,0.00005761,0.00004545,-0.00
 020021,0.00000167,0.00023215,-0.00015540,-0.00024829,-0.00007657,0.000
 13594,0.00005785,-0.00040964,0.00076424,-0.00023122,0.00299674,0.00086
 763,0.00256030,0.00154269,0.00989503,-0.00537567,-0.00121457,-0.000760
 26,-0.00112333,-0.00003264,-0.00056430,-0.00011037,0.00062003,0.003585
 77,0.00530158,0.00200250,0.00426403,0.00029684,0.03272888,0.14763384,-
 0.17060713,0.00009730,0.00021715,0.00006095,-0.00063929,-0.00003415,0.
 00006092,-0.00005279,0.00003561,-0.00001325,0.00006587,-0.00002474,-0.
 00003820,0.00003419,0.00000483,-0.00000161,0.00000364,-0.00000558,-0.0
 0000469,0.00000076,-0.00000497,0.00000618,0.00001787,-0.00000427,0.000
 01719,0.00019803,0.00009496,0.00010516,-0.00029213,-0.00048786,-0.0006
 9587,0.00016666,0.00014799,-0.00004950,-0.00149024,-0.00269747,-0.0024
 8480,-0.03657999,-0.16267532,0.17249426\\-0.00008147,-0.00006335,0.000
 08435,0.00006349,0.00012053,-0.00012442,-0.00016764,0.00001475,0.00005
 132,0.00016565,-0.00001434,-0.00005433,-0.00009450,-0.00006073,0.00008
 699,0.00007152,0.00001746,-0.00004249,0.00002708,0.00004326,-0.0000461
 1,-0.00005480,-0.00000869,0.00002874,0.00004273,-0.00004275,0.00001807
 ,0.00004572,0.00020992,-0.00018955,0.00006158,-0.00001698,-0.00001042,
 -0.00001235,-0.00002896,0.00002854,0.00000660,0.00003062,-0.00002764,0
 .00002581,0.00000232,-0.00001210,0.00000467,-0.00015787,0.00012723,-0.
 00000419,0.00006449,-0.00005109,-0.00005901,-0.00013274,0.00014580,-0.
 00016024,0.00003620,0.00002880,0.00011786,0.00000298,-0.00005412,0.000
 01398,-0.00000464,-0.00000163,0.00000636,-0.00002968,0.00002164,-0.000
 02027,-0.00000733,0.00001390,0.00003412,0.00001905,-0.00002912,-0.0000
 0051,0.00000919,-0.00000729,-0.00002085,0.00000412,0.00000486,-0.00001
 643,0.00000855,-0.00000049,0.00000510,-0.00001538,0.00001057\\\@
 The archive entry for this job was punched.


 SI MONUMENTUM REQUIRIS, CIRCUMSPICE
     -- FROM SIR CHRISTOPHER WREN'S TOMBSTONE
 FChkPn:  Coordinates translated and rotated.
 FChkPn:  Coordinates match /B/ after translation and rotation.
 Job cpu time:       0 days  1 hours 22 minutes  0.8 seconds.
 Elapsed time:       0 days  0 hours 10 minutes 17.0 seconds.
 File lengths (MBytes):  RWF=    395 Int=      0 D2E=      0 Chk=     14 Scr=      1
 Normal termination of Gaussian 16 at Fri Jun  4 13:17:01 2021.
